[Molden Format]
made by pyscf v[2.1.1]
[Atoms] (AU)
H   1   1     0.00000000000000     0.00000000000000     0.00000000000000
H   2   1     0.00000000000000     0.00000000000000     1.40784596280097
H   3   1     0.00000000000000     3.77945224913012     2.81569192560194
H   4   1     0.00000000000000     3.77945224913012     4.22353788840291
[GTO]
1 0
 s    3 1.00
             18.731137    0.03349459952309
             2.8253937    0.23472694665786
             0.6401217    0.81375731841339
 s    1 1.00
             0.1612778                   1
 p    1 1.00
                   1.1                   1

2 0
 s    3 1.00
             18.731137    0.03349459952309
             2.8253937    0.23472694665786
             0.6401217    0.81375731841339
 s    1 1.00
             0.1612778                   1
 p    1 1.00
                   1.1                   1

3 0
 s    3 1.00
             18.731137    0.03349459952309
             2.8253937    0.23472694665786
             0.6401217    0.81375731841339
 s    1 1.00
             0.1612778                   1
 p    1 1.00
                   1.1                   1

4 0
 s    3 1.00
             18.731137    0.03349459952309
             2.8253937    0.23472694665786
             0.6401217    0.81375731841339
 s    1 1.00
             0.1612778                   1
 p    1 1.00
                   1.1                   1

[5d]
[7f]
[9g]

[MO]
 Sym= A
 Ene=               0
 Spin= Alpha
 Occup=    1.00000
   1        1.645033666495
   2     -0.41379037822028
   3    6.314160477844e-16
   4    -0.0005653405679853
   5      0.39531206019645
   6     -0.47720637892636
   7    -0.039414131998463
   8    -6.3792074214781e-17
   9    -0.00057758061364373
  10      0.59124342722598
  11     0.027851385840826
  12     0.070867922777224
  13    1.4148494732593e-15
  14     0.008615623149561
  15    -0.0016258169862485
  16    -0.010539990801993
  17    -0.032725115043485
  18    -1.1836336681621e-15
  19     0.008011502667457
  20    -0.00064252152826868
 Sym= A
 Ene=               1
 Spin= Alpha
 Occup=    1.00000
   1      -0.4078454348455
   2       2.0034483992328
   3    2.0927883934392e-16
   4    -0.0026018779296341
   5      0.19175456268351
   6    -0.053592274456373
   7      -1.0386103276901
   8    2.2692854635647e-17
   9    -0.0023779738879818
  10      0.13035138181889
  11    -0.018609611580062
  12      0.18257649439187
  13    4.1737275494452e-15
  14    -0.057174879633319
  15    -0.00045983544120737
  16    -0.011409326713545
  17    -0.094820794511157
  18    -3.8442434306654e-15
  19    -0.040274736186198
  20    -0.0020435224791507
 Sym= A
 Ene=               2
 Spin= Alpha
 Occup=    0.00000
   1    -3.2496079877103e-16
   2    -2.2833323123812e-17
   3       1.0462318010169
   4    1.2631228724639e-15
   5    -5.0272496484547e-16
   6    2.865604163393e-16
   7    2.733497329148e-16
   8      -0.1811306992639
   9    7.3262572255548e-18
  10    -4.5731064044127e-16
  11    4.1431440473929e-15
  12    -8.2032607435833e-15
  13    0.0023478183359078
  14    3.5697798323713e-17
  15    -1.4114325744501e-16
  16    -3.3943025137689e-15
  17    8.4077201885073e-15
  18    -0.00040646984632407
  19    3.8148891452244e-16
  20    4.6792839425455e-16
 Sym= A
 Ene=               3
 Spin= Alpha
 Occup=    0.00000
   1    0.00078688339315357
   2    -0.0027835735857993
   3    -2.8362014255557e-16
   4       1.0427787094826
   5    -0.00095107093316401
   6    -0.0017822659091068
   7    -0.0015009190730667
   8    1.9837915899672e-16
   9     -0.18576985065894
  10    -0.00042403723920713
  11    -0.073716523829702
  12      0.20325692944434
  13    -3.2866052497466e-17
  14    -0.0085387369034733
  15     0.026286492688364
  16     0.036910295861713
  17     -0.17582590449441
  18    -1.6573709892479e-16
  19    0.0014782834084419
  20     0.011281528739753
 Sym= A
 Ene=               4
 Spin= Alpha
 Occup=    0.00000
   1      0.39620587361267
   2      0.19207871876963
   3    7.0064511919948e-16
   4    -0.0010746833274066
   5         1.44156279143
   6     -0.59265942744258
   7     -0.13320810043277
   8    -1.5697130730626e-16
   9    -0.0013812044764463
  10      0.54941716751309
  11    -0.022630547896073
  12     0.063256454111404
  13    1.6293989973255e-15
  14    -0.011631724958947
  15     0.017737406551697
  16    -0.016072879865229
  17    -0.043935427424054
  18    -1.6696377797821e-15
  19     -0.00303491080989
  20    0.0058842826471845
 Sym= A
 Ene=               5
 Spin= Alpha
 Occup=    0.00000
   1     -0.47408382978555
   2    -0.057029163817173
   3    -3.6009743237128e-16
   4    -0.0022811644959311
   5     -0.59286524321684
   6       1.6403607328462
   7     -0.39848562752218
   8    -2.6347229760032e-18
   9    -0.0023307798313303
  10     -0.39760604976107
  11    -0.024583141200102
  12      0.15797752672451
  13    2.0855137464859e-15
  14    -0.035676136581358
  15     0.008321222112576
  16    -0.041899523656725
  17    -0.092705636715324
  18    -1.76242673541e-15
  19    -0.026771264382083
  20    -0.0020558625613696
 Sym= A
 Ene=               6
 Spin= Alpha
 Occup=    0.00000
   1    -0.044821479613354
   2      -1.0363163183131
   3    -1.1266049894123e-17
   4    -0.0022968451038646
   5     -0.13199742994404
   6     -0.40207134789938
   7       1.9912410442905
   8    2.961925641434e-18
   9    -0.004121657289895
  10     -0.19040884493067
  11    -0.079186373064114
  12       0.1334622800452
  13    -3.0485749227164e-15
  14     0.069215691206762
  15     0.010470343408575
  16    -0.009792300525161
  17      -0.1746446116672
  18    2.0771234092956e-15
  19     0.055350787949188
  20      0.01992298086365
 Sym= A
 Ene=               7
 Spin= Alpha
 Occup=    0.00000
   1    3.4295553942363e-17
   2    2.6277899714184e-16
   3     -0.18113069926424
   4    -4.9603090740001e-16
   5    1.468129166499e-16
   6    -3.5995868229072e-17
   7    -3.30178392392e-16
   8       1.0462318010189
   9    7.0179297091317e-17
  10    7.6200584719036e-17
  11    -1.9171634799252e-15
  12    1.2510289884538e-15
  13    0.00040647061015715
  14    -4.3183892280755e-16
  15    -4.7330716241897e-16
  16    8.1927577972437e-16
  17    -9.7606489574376e-16
  18    -0.002347817600832
  19    2.1378636817471e-16
  20    -1.0513333795736e-15
 Sym= A
 Ene=               8
 Spin= Alpha
 Occup=    0.00000
   1    0.00075004637301676
   2    -0.00086590667759174
   3    2.485875358801e-16
   4     -0.18534226934692
   5    -0.00099485846789625
   6    -0.0011416466026293
   7    -0.0046760580160104
   8    -1.0384240122395e-16
   9       1.0403089505571
  10    -7.4664495990073e-05
  11    -0.078811749009276
  12      0.24800489808665
  13    -2.3456257157628e-16
  14    -0.0014782848863484
  15     0.056328618031425
  16     0.033137675619238
  17     -0.21925447712979
  18    -8.3751256646855e-17
  19    0.0085387357066333
  20     0.030731069535782
 Sym= A
 Ene=               9
 Spin= Alpha
 Occup=    0.00000
   1      0.59268318011711
   2      0.13090321329668
   3    5.0507234552266e-16
   4    -0.00035029029142974
   5      0.54933424563855
   6     -0.39690950799802
   7     -0.19178078635148
   8    -2.16272372596e-17
   9    -0.00021075373625476
  10       1.4409520306996
  11    -0.018003469293621
  12    0.0025956548076239
  13    1.6428280388684e-15
  14    -0.031847934540147
  15    -0.0023639772096074
  16    -0.0021988154959868
  17      -0.0159310495417
  18    -1.7870551009486e-15
  19    -0.010295341586361
  20    -0.011622271791348
 Sym= A
 Ene=              10
 Spin= Alpha
 Occup=    0.00000
   1    -0.041899438144481
   2     -0.09270554708308
   3    -2.4172879230401e-15
   4     0.026771263092785
   5    0.0020558709860539
   6    -0.024583047963268
   7      0.15797760597333
   8    1.1011509367052e-15
   9     0.035676131674316
  10    -0.0083212176839236
  11       1.6403607244941
  12     -0.39848558537342
  13    -9.4211237218167e-17
  14    0.0023307782673826
  15      0.39760605141925
  16     -0.47408383703307
  17    -0.057029195064988
  18    4.8622383479775e-17
  19    0.0022811640664021
  20      0.59286524471381
 Sym= A
 Ene=              11
 Spin= Alpha
 Occup=    0.00000
   1    -0.0097921921395154
   2     -0.17464449947659
   3    3.0612831762267e-15
   4    -0.055350788706904
   5    -0.019922971012224
   6    -0.079186269892796
   7      0.13346232648464
   8    -4.3318073361659e-16
   9    -0.069215695950222
  10    -0.010470343770534
  11     -0.40207134470272
  12       1.9912410958892
  13    -8.2554702928882e-17
  14    0.0041216555108783
  15      0.19040884670805
  16    -0.044821474694499
  17      -1.0363163372105
  18    3.3479293789536e-16
  19    0.0022968441701364
  20      0.13199743038298
 Sym= A
 Ene=              12
 Spin= Alpha
 Occup=    0.00000
   1    -1.2319262572498e-15
   2    -9.165077125113e-15
   3    -0.0023478182783864
   4    -4.7708065066181e-17
   5    -3.0171563455117e-15
   6    -1.8558435249601e-15
   7    9.7680459258946e-15
   8    0.00040646951407095
   9    2.3446540288177e-16
  10    -3.5369883078877e-15
  11    -1.2515231476156e-16
  12    -3.39780641481e-16
  13       1.0462318010167
  14    1.4330723613322e-16
  15    -6.6316177488522e-17
  16    1.6323765449916e-16
  17    6.5437144770997e-17
  18     -0.18113069926315
  19    2.2895987310976e-16
  20    -2.6867211979469e-17
 Sym= A
 Ene=              13
 Spin= Alpha
 Occup=    0.00000
   1    -0.033137688604487
   2      0.21925446569787
   3    -5.0239793721827e-16
   4    0.0085387366958459
   5     0.030731069586377
   6      0.07881175603517
   7     -0.24800488528193
   8    -6.4126158842731e-17
   9    -0.0014782822104777
  10     0.056328618920572
  11    0.0011416454680237
  12    0.0046760564076752
  13    4.7202957343276e-16
  14       1.0403089507292
  15    -7.4664262392941e-05
  16    -0.00075004634918185
  17    0.00086590612470547
  18    -2.7454404112339e-16
  19     -0.18534226916342
  20    -0.00099485836053199
 Sym= A
 Ene=              14
 Spin= Alpha
 Occup=    0.00000
   1    0.0021988345142108
   2     0.015931065305002
   3    7.4779149902137e-16
   4    -0.010295339599583
   5    -0.011622273228108
   6     0.018003473836313
   7    -0.0025956316599237
   8    -6.1457767992501e-17
   9    -0.031847928615638
  10    -0.002363982969573
  11        0.396909503796
  12      0.19178079233055
  13    2.2612536398204e-16
  14    -0.00021075346858255
  15       1.4409520310737
  16     -0.59268318296799
  17      -0.1309032218255
  18    -1.4817342052982e-17
  19    -0.00035029001993744
  20      0.54933424625794
 Sym= A
 Ene=              15
 Spin= Alpha
 Occup=    0.00000
   1    -0.010539905267506
   2    -0.032725033068918
   3    8.5278966506648e-16
   4    -0.0080114987845216
   5    0.00064252609171444
   6     0.027851466713574
   7     0.070868021446104
   8    -9.5236594139871e-16
   9    -0.0086156126803931
  10    0.0016258079534174
  11     -0.47720639202692
  12    -0.039414091748342
  13    -1.7602798760653e-16
  14    0.00057757994613426
  15     -0.59124342516786
  16       1.6450336568156
  17     -0.41379041505977
  18    -7.928442609793e-17
  19    0.00056534074284887
  20      -0.3953120580257
 Sym= A
 Ene=              16
 Spin= Alpha
 Occup=    0.00000
   1    -0.011409228183467
   2    -0.094820698497591
   3    -2.5216598996314e-15
   4      0.04027473974223
   5    0.0020435297658399
   6    -0.018609514382931
   7      0.18257658296953
   8     1.60628705042e-15
   9     0.057174885137234
  10    0.00045982887150522
  11    -0.053592288304755
  12      -1.0386102831919
  13    -2.9982798764535e-16
  14    0.0023779725282865
  15     -0.13035137979287
  16     -0.40784544694572
  17       2.0034483587855
  18    8.0528627555756e-17
  19    0.0026018777280931
  20     -0.19175456042515
 Sym= A
 Ene=              17
 Spin= Alpha
 Occup=    0.00000
   1    1.0616484641943e-15
   2    7.9621806988826e-15
   3    -0.0004064702779038
   4    1.5049366853294e-17
   5    3.1326581955331e-15
   6    9.5292897168944e-16
   7    -7.4983913008931e-15
   8      0.00234781754331
   9    -3.0639900423672e-16
  10    3.5996847571467e-15
  11    9.9891680047929e-18
  12    3.3883813444712e-16
  13      -0.1811306992635
  14    -2.8930830032465e-16
  15    4.4457173562651e-18
  16    -4.5830909279419e-17
  17    -9.6754067822191e-17
  18       1.0462318010187
  19    -3.4139353618251e-17
  20    -1.8518873737362e-17
 Sym= A
 Ene=              18
 Spin= Alpha
 Occup=    0.00000
   1    -0.036910301793887
   2       0.1758258968432
   3    9.6001388219639e-17
   4    0.0014782836877851
   5     0.011281528780679
   6     0.073716527147765
   7     -0.20325692304479
   8    2.8901016186955e-16
   9    -0.0085387354993576
  10     0.026286493044211
  11    0.0017822655333236
  12    0.0015009174251935
  13    3.8744936868926e-16
  14     -0.18576985046914
  15    -0.00042403714020912
  16    -0.00078688302036214
  17    0.0027835739285494
  18    -2.7782277721282e-16
  19       1.0427787096183
  20    -0.00095107091890018
 Sym= A
 Ene=              19
 Spin= Alpha
 Occup=    0.00000
   1     0.016072862818109
   2     0.043935407728303
   3    -5.0647960010892e-16
   4    -0.0030349094020625
   5    0.0058842799128223
   6     0.022630530046899
   7    -0.063256466261924
   8    9.0759387053933e-16
   9     -0.01163172112338
  10     0.017737402214438
  11      0.59265942764451
  12      0.13320809165255
  13    2.4433230218325e-16
  14    -0.0013812040622675
  15      0.54941716731208
  16      -0.3962058731843
  17     -0.19207871435364
  18    -1.0249783467673e-16
  19    -0.0010746831506147
  20       1.4415627913239
