[Molden Format]
made by pyscf v[2.1.1]
[Atoms] (AU)
Cr   1   24    -1.88972612456506     0.00000000000000     0.00000000000000
Cr   2   24     3.77945224913012     0.00000000000000     0.00000000000000
[GTO]
1 0
 s    6 1.00
          51528.086349  0.0017695545768669
          7737.2103487   0.013556436258096
           1760.374847   0.067162645785071
          496.87706544    0.23295905918518
          161.46520598    0.47040576982722
          55.466352268    0.35733072606876
 s    3 1.00
          107.54732999   -0.10605255446629
          12.408671897    0.62543981484169
          5.0423628826    0.44878820793655
 s    3 1.00
          8.5461640165   -0.21819012081133
          1.3900441221    0.70422525667731
         0.56066602876    0.42488555412558
 s    1 1.00
        0.071483705972                   1
 s    1 1.00
        0.028250687604                   1
 p    5 1.00
          640.48536096  0.0093555063746755
          150.69711194   0.068993338492216
          47.503755296     0.2634118959318
          16.934120165    0.51034501651775
           6.240968059    0.33195512953954
 p    3 1.00
          3.0885463206    0.32917682676976
          1.1791047769    0.55491385190365
         0.43369774432    0.23818412855984
 p    1 1.00
              0.120675                   1
 d    4 1.00
          27.559479426   0.036950140313562
          7.4687020327    0.18821519783039
          2.4345903574    0.44641244239929
         0.78244754808     0.5681617303244
 d    1 1.00
         0.21995774311                   1
 f    1 1.00
                 1.147                   1

2 0
 s    6 1.00
          51528.086349  0.0017695545768669
          7737.2103487   0.013556436258096
           1760.374847   0.067162645785071
          496.87706544    0.23295905918518
          161.46520598    0.47040576982722
          55.466352268    0.35733072606876
 s    3 1.00
          107.54732999   -0.10605255446629
          12.408671897    0.62543981484169
          5.0423628826    0.44878820793655
 s    3 1.00
          8.5461640165   -0.21819012081133
          1.3900441221    0.70422525667731
         0.56066602876    0.42488555412558
 s    1 1.00
        0.071483705972                   1
 s    1 1.00
        0.028250687604                   1
 p    5 1.00
          640.48536096  0.0093555063746755
          150.69711194   0.068993338492216
          47.503755296     0.2634118959318
          16.934120165    0.51034501651775
           6.240968059    0.33195512953954
 p    3 1.00
          3.0885463206    0.32917682676976
          1.1791047769    0.55491385190365
         0.43369774432    0.23818412855984
 p    1 1.00
              0.120675                   1
 d    4 1.00
          27.559479426   0.036950140313562
          7.4687020327    0.18821519783039
          2.4345903574    0.44641244239929
         0.78244754808     0.5681617303244
 d    1 1.00
         0.21995774311                   1
 f    1 1.00
                 1.147                   1

[5d]
[7f]
[9g]

[MO]
 Sym= A
 Ene=               0
 Spin= Alpha
 Occup=    1.00000
   1    -0.017438820748831
   2     0.038166750398034
   3     -0.36480600455059
   4       2.0586910819044
   5      -1.0776778149328
   6     0.007152173073841
   7    1.6351152113501e-16
   8    8.835766653056e-17
   9    -0.029143376016051
  10    1.7328793608346e-16
  11    1.3356666432268e-16
  12      0.21279862291099
  13    -4.6350390187003e-17
  14    -3.960538692504e-17
  15     0.014257538994609
  16    -5.2050261401221e-17
  17    -8.1393994787985e-17
  18    -0.024694781929557
  19    -3.4467980113263e-17
  20    -0.073710122915589
  21    -1.4694577774365e-16
  22    8.8276775375213e-17
  23      0.12766967792195
  24    -5.0799368217789e-17
  25    2.907321439668e-18
  26    -0.0050142084152575
  27    -5.4844790981836e-20
  28    -2.7497977042374e-18
  29    -6.1824963291596e-19
  30    0.0064733152289018
  31    -3.7975383402794e-20
  32     0.002697500949942
  33    -0.0059219369514894
  34     0.051969592016451
  35     -0.20694521341758
  36     0.066089511631469
  37     0.013392506423117
  38    -3.93180247692e-17
  39    -5.8197961980611e-17
  40    -0.053645559331336
  41    5.5879230647915e-17
  42    -1.7375096599984e-16
  43      0.35069455816412
  44    -1.9515036300175e-17
  45    1.5115804624875e-17
  46    -0.024201923077837
  47    5.9941501487731e-17
  48    -1.0307903987208e-16
  49     0.041918960411688
  50    8.6941739097401e-17
  51      0.11955121730543
  52    -2.4201854577651e-17
  53    -5.3677373598199e-17
  54     -0.20706878247971
  55    -6.8433906288662e-18
  56    -1.3579539258267e-18
  57    -0.0057775545674674
  58    -7.2029115694966e-19
  59    -5.7093607185074e-20
  60    8.073602803146e-20
  61    0.0074587908738687
  62    3.7742373688123e-18
 Sym= A
 Ene=               1
 Spin= Alpha
 Occup=    1.00000
   1    8.1731915456517e-17
   2    2.8292173907853e-16
   3    -3.0093177077795e-16
   4    -3.7308242561286e-17
   5    3.5293098581032e-17
   6    -3.4216078963419e-16
   7    -0.00029187791204666
   8    6.0212447571718e-16
   9    2.0999941230368e-16
  10    0.0011578017824746
  11    7.4576750699186e-18
  12    4.7596326171962e-17
  13    -0.0049613632083469
  14    2.4913303396579e-16
  15    8.2632139328435e-16
  16    3.7504756741961e-16
  17    2.3089515378564e-16
  18    2.9151076444268e-16
  19       1.0528231111778
  20    -4.1792713803637e-16
  21    4.5593514484509e-16
  22    -7.6962301391669e-16
  23    -2.7841854146822e-16
  24     -0.19738765486866
  25    -1.9398968037174e-16
  26    7.7319366901017e-17
  27    7.6588141538998e-05
  28    -4.0218646916612e-16
  29    -2.6209204312153e-16
  30    9.8204928293734e-17
  31    -0.00029662459669867
  32    5.661946757473e-16
  33    -1.5974542493408e-16
  34    -1.6395229074897e-16
  35    4.4621540160834e-17
  36    5.668617530367e-17
  37    -2.6106310453809e-16
  38    0.00081182572242302
  39    -5.6360023247816e-16
  40    4.1731087558041e-16
  41    -0.0033069530210281
  42    -3.7682257807042e-16
  43    -2.1187115977223e-16
  44     0.016259021831724
  45    3.6822521596312e-17
  46    2.0756916858356e-16
  47    4.8477684910246e-16
  48    2.1217003305717e-16
  49    2.9848434802213e-16
  50    0.0047828042794469
  51    -2.9454788292884e-16
  52    -2.2654323726947e-17
  53    -4.8180119368504e-16
  54    -1.8963327755236e-16
  55    -0.021859847586165
  56    -1.1617531768143e-16
  57    4.4343503863986e-16
  58    -0.00042055259268541
  59    1.2663973376789e-16
  60    -3.2653753612374e-17
  61    -2.2592043975479e-16
  62    0.0016287931876749
 Sym= A
 Ene=               2
 Spin= Alpha
 Occup=    1.00000
   1    -1.9372050791009e-17
   2    5.2426309950281e-17
   3    9.4609905952828e-18
   4    -8.1388191304111e-17
   5    2.3742615164316e-16
   6    3.5436489788136e-16
   7    -7.4422762248388e-17
   8    4.6717718375047e-16
   9    -1.4485348118096e-17
  10    -1.2797264263052e-17
  11    -9.5289202602835e-16
  12    1.6823535379852e-16
  13    -2.5079634834393e-16
  14    1.8535676104633e-16
  15    4.6596816237957e-16
  16    1.5924133010494e-15
  17       1.0514293594683
  18    -1.8219353276675e-16
  19    2.0439659664445e-16
  20    -2.8239317683017e-16
  21    -5.215112512658e-16
  22     -0.19173489830631
  23    1.4241038039153e-16
  24    -9.120753735928e-16
  25    1.3580679747866e-16
  26    1.0494472704893e-16
  27    1.6055099997457e-16
  28    7.8914501500362e-17
  29    -5.8857959216229e-06
  30    4.4713202007428e-16
  31    2.7548451228854e-16
  32    1.5301761525383e-17
  33    -1.5281131187787e-16
  34    -2.2134191155168e-17
  35    -1.5452855956601e-16
  36    5.9058507976888e-17
  37    -8.321637634202e-17
  38    2.9354941821464e-16
  39    -6.4559793149964e-16
  40    -1.5901472064055e-16
  41    5.8811620131783e-17
  42    -6.2853667110305e-17
  43    4.3235430329342e-16
  44    -4.4987616796228e-16
  45    8.3208844494146e-16
  46    -4.9809014425585e-17
  47    9.8699044256564e-16
  48    -0.00099325185071072
  49    3.3136104157519e-18
  50    -7.3154827959216e-16
  51    -3.6033849304801e-17
  52    2.3720482290646e-17
  53    0.0038798459546071
  54    -5.7892375132145e-17
  55    -7.0383103200352e-16
  56    -2.6579828652901e-17
  57    1.0609651306254e-16
  58    3.9367153480334e-17
  59    1.7891198446283e-16
  60    -0.00025673944260494
  61    2.5199353483587e-16
  62    -5.5003993933351e-18
 Sym= A
 Ene=               3
 Spin= Alpha
 Occup=    1.00000
   1    -0.00017331017435209
   2    0.00037507529633447
   3    -0.0032995198206542
   4     0.014257538994609
   5    0.0040174206281241
   6    0.0009018903261642
   7    1.5838128326255e-16
   8    -1.9533603101278e-16
   9    -0.0035685971586926
  10    -1.3919987601382e-16
  11    -2.3001025503845e-17
  12     0.021597305887719
  13    2.1645942065192e-16
  14    1.0186170417681e-16
  15       1.0528594211846
  16    4.9362118749864e-16
  17    4.7550689650074e-16
  18    -0.0024769395506615
  19    7.0130808373436e-16
  20     -0.19854393372318
  21    9.4644695432366e-17
  22    2.8132501996872e-16
  23     0.011793595292558
  24    4.3069109073864e-16
  25    1.0224884542447e-16
  26    -0.00043270653270153
  27    1.0665713472756e-16
  28    -2.7100165135718e-16
  29    -2.0427038066197e-16
  30    0.00055029795923191
  31    -1.3462696516444e-16
  32    0.00018581715385305
  33    -0.0002672068226124
  34    0.0037231590783767
  35    -0.024201923077836
  36    0.0026324615690332
  37    0.00050482030457181
  38    5.3185139467029e-16
  39    5.2477978133941e-16
  40    -0.0020542583179849
  41    -1.0155233425171e-15
  42    6.5742708729356e-16
  43     0.025943652887395
  44    7.9194911450575e-16
  45    2.1669850133995e-16
  46    -0.0019174976326371
  47    5.7688989764147e-17
  48    6.8961313455537e-16
  49    0.0016008406529737
  50    7.8246218174466e-17
  51     0.012115302383971
  52    -1.5168933082769e-16
  53    1.2616441864824e-16
  54     -0.01426422895918
  55    1.0494241193178e-16
  56    3.9049565052907e-17
  57    -0.001408675014708
  58    -4.8354492050179e-18
  59    -5.2172154551767e-17
  60    2.0917367163384e-17
  61    0.0014555072223329
  62    1.8608776871537e-17
 Sym= A
 Ene=               4
 Spin= Alpha
 Occup=    1.00000
   1    3.1963906181127e-16
   2    -3.4001301820676e-16
   3    -2.0958346956005e-18
   4    -6.3106215020197e-17
   5    7.3111565134909e-17
   6    1.8092442304668e-16
   7    6.6660932959576e-16
   8    -0.0002918779120479
   9    8.5980268646681e-19
  10    -2.6961196900296e-16
  11     0.001157801782474
  12    4.9041704330865e-17
  13    5.5433152944244e-16
  14    -0.0049613632083466
  15    5.2957351769495e-16
  16       1.0528231111778
  17    1.6643364604575e-15
  18    -2.8842270338441e-18
  19    3.2495234137452e-16
  20    -1.6526275413974e-16
  21     -0.19738765486866
  22    -1.0626155372811e-15
  23    -7.1178292581952e-17
  24    6.5220278575675e-16
  25    0.00018760186711901
  26    -1.1262166246032e-16
  27    5.736898455153e-17
  28    -0.00024219296902345
  29    -7.1841453508098e-17
  30    1.8960787618999e-16
  31    -3.762949050215e-16
  32    -1.4336893089568e-16
  33    -5.1202522291185e-17
  34    -2.5014312682239e-16
  35    6.145634643082e-17
  36    1.1012706388015e-16
  37    -3.8392837817488e-16
  38    -2.6731301033979e-16
  39    0.00081182572242362
  40    1.347213529879e-16
  41    1.6092141615349e-16
  42    -0.0033069530210284
  43    1.2632806065309e-17
  44    -3.1787530017767e-16
  45     0.016259021831723
  46    -1.9069328822128e-16
  47    0.0047828042794466
  48    1.2560189860287e-15
  49    -1.1146843793098e-16
  50    2.317760517638e-16
  51    9.9384317666157e-17
  52    -0.021859847586166
  53    -5.2842584272672e-16
  54    6.1227699614755e-17
  55    -6.5217157857815e-16
  56    -0.0010301392620837
  57    -2.8097434763824e-16
  58    -5.9844135024859e-18
  59    0.0013299040687748
  60    -3.0466934998036e-17
  61    1.5547565271307e-16
  62    -1.6451715041293e-16
 Sym= A
 Ene=               5
 Spin= Alpha
 Occup=    1.00000
   1    0.0003001820274468
   2    -0.00064964946991624
   3     0.005714935969954
   4    -0.024694781929557
   5    -0.006958376643286
   6    -0.0015621198677722
   7    -1.8156127694816e-16
   8    3.5760191748811e-17
   9    0.0061809915906024
  10    3.575699823314e-16
  11    1.6999571205045e-16
  12    -0.037407631104136
  13    1.0067059261616e-17
  14    -2.3497712130289e-16
  15    -0.0024769395506614
  16    -2.0734319368637e-17
  17    -9.0864740726746e-17
  18       1.0557195446173
  19    1.7416613715594e-16
  20     0.011793595292559
  21    -4.6269200032563e-16
  22    2.3991963542012e-16
  23     -0.21216200455693
  24    3.9446241861077e-16
  25    6.1049675461635e-17
  26    0.00074016343892846
  27    6.0531347868908e-17
  28    -1.6226690783088e-16
  29    -1.1913633314476e-16
  30    -0.00096035262305989
  31    -7.1376848812698e-17
  32    -0.00032184475139225
  33    0.00046281579289433
  34    -0.0064487006884099
  35     0.041918960411686
  36    -0.0045595571865385
  37    -0.00087437441620981
  38    -2.4797457155893e-16
  39    -5.4433484393962e-16
  40    0.0035580797786205
  41    -8.4710084076794e-16
  42    -7.6368393917207e-16
  43    -0.044935724934901
  44    -1.3101420359906e-16
  45    -6.0378808823428e-16
  46    0.0016008406529736
  47    -6.1508101520672e-17
  48    1.7730372394399e-16
  49    -0.0037659891964849
  50    -3.0808011415616e-16
  51    -0.014264228959179
  52    -1.2985487445433e-16
  53    5.0609616270921e-17
  54     0.028586215242701
  55    -1.2587866036682e-16
  56    3.3080945748246e-17
  57    0.0020339559949099
  58    -2.5166384573949e-19
  59    -4.1640461093058e-17
  60    1.2836461046415e-17
  61    -0.0028354527754779
  62    3.7713460975605e-18
 Sym= A
 Ene=               6
 Spin= Alpha
 Occup=    1.00000
   1    0.0026975009499428
   2    -0.0059219369514889
   3      0.05196959201645
   4     -0.20694521341758
   5     0.066089511631462
   6    -0.013392506423118
   7    2.8964038250127e-16
   8    -1.4097908444927e-16
   9     0.053645559331335
  10    1.9668383191297e-16
  11    -7.5496651046114e-17
  12     -0.35069455816412
  13    -1.8686049845036e-17
  14    -2.6747433419166e-17
  15    -0.024201923077836
  16    4.7602252770713e-17
  17    -2.1596259526548e-16
  18     0.041918960411686
  19    3.1745040582509e-17
  20      0.11955121730543
  21    8.6118131992243e-17
  22    -4.6404227098683e-17
  23     -0.20706878247971
  24    -1.9032865282397e-16
  25    -2.0847632602998e-18
  26    0.0057775545674674
  27    1.5033017015395e-18
  28    3.6525721483744e-18
  29    2.7494426496505e-19
  30    -0.0074587908738687
  31    -8.6381611265362e-18
  32     -0.01743882074883
  33     0.038166750398033
  34     -0.36480600455059
  35       2.0586910819044
  36      -1.0776778149328
  37    -0.0071521730738402
  38    1.940480725124e-16
  39    1.5240227026054e-16
  40     0.029143376016049
  41    -2.1930177345058e-16
  42    1.8906922960384e-16
  43     -0.21279862291099
  44    1.5958419875431e-16
  45    1.1839818667464e-16
  46     0.014257538994609
  47    3.1315284199583e-17
  48    7.509303276916e-17
  49    -0.024694781929557
  50    2.1180410759649e-16
  51    -0.073710122915588
  52    8.6661309908489e-17
  53    5.7398972271558e-17
  54      0.12766967792195
  55    2.9518575087873e-16
  56    -3.7191377521803e-18
  57    0.0050142084152575
  58    1.3666254797935e-18
  59    5.7047861941731e-18
  60    8.1758613538462e-20
  61    -0.0064733152289017
  62    -2.8223002204514e-18
 Sym= A
 Ene=               7
 Spin= Alpha
 Occup=    1.00000
   1    2.4603705958288e-16
   2    -3.4326946910591e-16
   3    1.5085183616475e-16
   4    8.8913295799522e-17
   5    -1.9396404403427e-16
   6    6.0653295592697e-16
   7    -0.00081182572242314
   8    -1.7393288839471e-16
   9    -4.509288991457e-16
  10     0.003306953021027
  11    8.3066052346005e-16
  12    1.0292537968167e-16
  13    -0.016259021831724
  14    1.9989508884934e-16
  15    3.1480559352447e-17
  16    2.7051795635525e-16
  17    -6.6259751522516e-16
  18    -2.9640949208723e-16
  19    0.0047828042794468
  20    2.1995159687873e-16
  21    1.5374824278933e-16
  22    1.0132524920053e-16
  23    3.8076566025848e-16
  24    -0.021859847586165
  25    -1.9124169572344e-16
  26    -3.0287619339842e-16
  27    0.00042055259268545
  28    -5.5509026849624e-17
  29    -3.1149948801802e-16
  30    8.0673920880725e-17
  31    -0.0016287931876748
  32    2.0561839068173e-16
  33    -2.8247630055613e-16
  34    -1.3364433679283e-17
  35    1.9970446045188e-16
  36    -7.1642718218748e-18
  37    -4.9977007611457e-16
  38    0.00029187791204677
  39    -7.5106687532712e-16
  40    1.2898933543771e-16
  41    -0.0011578017824757
  42    -4.5185038688373e-18
  43    1.9215752768516e-16
  44    0.0049613632083464
  45    -2.1541197563739e-17
  46    -9.0294157819716e-17
  47    1.3290582634407e-16
  48    4.9684347349668e-16
  49    -3.1775205213761e-16
  50       1.0528231111778
  51    -2.773440161705e-16
  52    8.9905030834059e-16
  53    6.3011470972248e-17
  54    1.4500532966879e-16
  55     -0.19738765486866
  56    7.8177841967773e-17
  57    -4.7690830336807e-16
  58    -7.6588141539331e-05
  59    -1.1337865401411e-16
  60    8.5508377403281e-18
  61    4.131211990534e-17
  62    0.00029662459669876
 Sym= A
 Ene=               8
 Spin= Alpha
 Occup=    1.00000
   1    -7.2678850501273e-17
   2    4.1090537390257e-17
   3    3.2786419212216e-17
   4    -9.3678886029646e-17
   5    -7.6591067959495e-17
   6    8.4531671367608e-17
   7    2.5488132916482e-16
   8    -3.3976071711416e-16
   9    -8.7362814758733e-17
  10    -8.8029070146366e-16
  11    -1.0065463728098e-17
  12    -3.993825581063e-17
  13    5.6217104727686e-16
  14    1.3084483464963e-16
  15    6.761647233702e-16
  16    1.2742797298468e-15
  17    -0.00099325185071091
  18    2.2221915490141e-16
  19    1.7264352325425e-16
  20    -6.0921418434549e-16
  21    -3.4456263697865e-16
  22    0.0038798459546079
  23    -1.3600993539846e-16
  24    -5.1755138916502e-16
  25    2.8717568666343e-16
  26    3.904566831037e-16
  27    -3.856247350222e-17
  28    -3.7957214216234e-16
  29    0.00025673944260493
  30    -2.536299773992e-16
  31    2.8278479409798e-16
  32    8.0769478048429e-17
  33    -4.9630928533536e-17
  34    -8.8123407062324e-18
  35    6.2920547671627e-17
  36    4.1601549736226e-17
  37    -3.4107951949979e-17
  38    -2.2389828574014e-16
  39    -2.2273886908485e-16
  40    4.6277523802985e-18
  41    4.4435978254883e-16
  42    -1.3346969630691e-16
  43    -9.0046468014539e-17
  44    -5.9421641297228e-16
  45    1.4649382819081e-18
  46    -3.1254829356031e-17
  47    1.154860842419e-15
  48       1.0514293594683
  49    8.5875425155141e-17
  50    4.1614199656266e-16
  51    6.7261825565556e-17
  52    -6.8696225275628e-16
  53     -0.19173489830631
  54    -3.67110317284e-17
  55    -1.1274328681252e-15
  56    -2.3464322346925e-16
  57    -3.330724773694e-16
  58    -1.676304193859e-17
  59    1.3067704890135e-16
  60    5.8857959214773e-06
  61    5.0912760858801e-16
  62    5.8219855281078e-17
 Sym= A
 Ene=               9
 Spin= Alpha
 Occup=    1.00000
   1    0.00018581715385357
   2    -0.00026720682261247
   3    0.0037231590783763
   4    -0.024201923077837
   5    0.0026324615690339
   6    -0.00050482030457191
   7    -3.4168227130624e-16
   8    2.1166903476184e-16
   9    0.0020542583179845
  10    3.7046446272637e-16
  11    -1.5641443704463e-16
  12    -0.025943652887396
  13    -1.2301642164465e-16
  14    -1.3420177711699e-17
  15    -0.0019174976326372
  16    -9.3101504382931e-17
  17    -8.7934285892308e-17
  18    0.0016008406529735
  19    1.7380786675126e-16
  20     0.012115302383971
  21    -2.0431566479975e-16
  22    9.3818103599543e-17
  23     -0.01426422895918
  24    4.0046435119738e-16
  25    -1.7537061985329e-16
  26    0.0014086750147079
  27    1.7551160839396e-16
  28    -4.1183249475158e-16
  29    2.0946003486638e-16
  30    -0.0014555072223325
  31    -2.7198925438815e-17
  32    -0.00017331017435223
  33    0.00037507529633583
  34    -0.0032995198206542
  35     0.014257538994609
  36    0.0040174206281246
  37    -0.0009018903261655
  38    -4.3148149940575e-16
  39    2.6493351634255e-16
  40    0.0035685971586936
  41     3.65670791195e-17
  42    -8.8077102711669e-17
  43     -0.02159730588772
  44    -2.2362810661128e-16
  45    -1.3206894732237e-16
  46       1.0528594211846
  47    -1.089641594944e-16
  48    2.6196453013429e-17
  49    -0.0024769395506609
  50    -7.8332280589648e-17
  51     -0.19854393372318
  52    -2.753945425014e-16
  53    -2.2319771944894e-16
  54      0.01179359529256
  55    -1.3220059225901e-16
  56    1.9728549912534e-17
  57    0.00043270653270145
  58    4.0175547418644e-18
  59    -2.2560324405891e-18
  60    -1.2989177347745e-17
  61    -0.00055029795923174
  62    1.3942096025937e-17
 Sym= A
 Ene=              10
 Spin= Alpha
 Occup=    1.00000
   1    -1.6552293863918e-16
   2    2.3925254447524e-16
   3    1.5035198410412e-16
   4    6.0664319532008e-17
   5    -2.4888969876741e-16
   6    -2.7936674458728e-17
   7    4.9129449382085e-19
   8    -0.00081182572242382
   9    -4.306337432235e-17
  10    8.1481785993517e-16
  11    0.0033069530210285
  12    6.854844067792e-17
  13    -2.4873145439713e-16
  14    -0.016259021831724
  15    5.5622206723604e-17
  16    0.0047828042794466
  17    9.4721551534479e-16
  18    4.5921903373621e-17
  19    5.1223689867066e-16
  20    -4.7667014354568e-16
  21    -0.021859847586165
  22    -9.8191695065746e-17
  23    4.7604713726115e-18
  24    6.9475825384498e-16
  25    0.0010301392620838
  26    -1.9141464722577e-16
  27    1.2822720528268e-17
  28    -0.0013299040687748
  29    3.3118085758794e-16
  30    1.693274402067e-16
  31    1.0254344613086e-16
  32    3.187514334377e-16
  33    -7.8996242436287e-17
  34    2.6177246445316e-17
  35    3.5044230670889e-17
  36    1.7232986539539e-18
  37    8.1792437624442e-17
  38    -2.8546560828493e-16
  39    0.00029187791204749
  40    1.542714139803e-16
  41    -2.1862948179864e-17
  42    -0.001157801782475
  43    -2.4605728961706e-17
  44    -1.2590749614388e-16
  45    0.0049613632083467
  46    -1.1178373733931e-16
  47       1.0528231111778
  48    1.162338290337e-15
  49    -4.5273391762295e-16
  50    1.6068864775773e-16
  51    -8.5940284086058e-17
  52     -0.19738765486866
  53    -6.1087157464879e-16
  54    1.8876188171912e-16
  55    1.1736462071103e-15
  56    -0.00018760186711966
  57    2.064759316988e-16
  58    8.6387919973789e-18
  59    0.00024219296902401
  60    1.9590611392529e-17
  61    1.9315867039141e-16
  62    9.0750591598648e-18
 Sym= A
 Ene=              11
 Spin= Alpha
 Occup=    1.00000
   1    -0.00032184475139239
   2    0.00046281579289415
   3    -0.0064487006884099
   4     0.041918960411688
   5    -0.0045595571865386
   6    0.00087437441620952
   7    -5.9109810717255e-16
   8    1.6758252576733e-16
   9    -0.0035580797786198
  10    -1.8942905631383e-17
  11    -6.1318507026942e-16
  12     0.044935724934901
  13    -4.3141428090928e-16
  14    2.9450154807872e-16
  15    0.0016008406529738
  16    -7.8512191152118e-17
  17    -3.0275257550684e-17
  18    -0.0037659891964848
  19    3.1138371527057e-16
  20    -0.014264228959179
  21    2.2491933429791e-16
  22    -4.0050551920714e-17
  23       0.0285862152427
  24    8.6201825644856e-16
  25    -1.1263296565326e-16
  26     -0.00203395599491
  27    9.6383799109335e-17
  28    -2.2339848924433e-16
  29    1.2115613254206e-16
  30    0.0028354527754779
  31    9.9599648089767e-18
  32    0.00030018202744672
  33    -0.00064964946991668
  34    0.0057149359699543
  35    -0.024694781929557
  36    -0.0069583766432876
  37    0.0015621198677731
  38    -1.5454449560619e-16
  39    3.5363595705398e-16
  40    -0.006180991590603
  41    9.108533290168e-16
  42    5.347537161522e-16
  43     0.037407631104137
  44    -4.717905120046e-17
  45    1.2216390581353e-16
  46    -0.0024769395506609
  47    -4.0885262359893e-16
  48    1.172449967294e-16
  49       1.0557195446173
  50    -3.4973121461108e-16
  51     0.011793595292559
  52    -5.9141427961995e-17
  53    -8.5853592792515e-17
  54     -0.21216200455693
  55    -2.0942983553816e-16
  56    1.2781051482311e-17
  57    -0.00074016343892833
  58    2.6538828576014e-18
  59    -8.2112769087422e-18
  60    -7.0254509380186e-18
  61    0.00096035262305952
  62    1.4297357738117e-17
 Sym= A
 Ene=              12
 Spin= Alpha
 Occup=    1.00000
   1    2.1857123130467e-17
   2    3.8111458947837e-20
   3    -3.3475016458051e-17
   4    1.2092837038133e-16
   5    -1.3279068400068e-16
   6    -1.2269244868475e-16
   7    1.1841983568269e-15
   8    1.6331629736764e-16
   9    2.8767125356347e-16
  10    -5.8127428476807e-16
  11    2.2275454198691e-16
  12    2.0403339459864e-16
  13    -4.8625277804615e-16
  14    -8.5464293712946e-16
  15    -0.0085092086362622
  16    -1.0237799835588e-15
  17     -0.13246960579057
  18    -0.0049127938967365
  19    -1.1886266222407e-15
  20     0.046880288397137
  21    -5.7943442045509e-16
  22      0.72982266492468
  23     0.027066347125774
  24    1.957080159599e-15
  25    -4.682483618125e-16
  26    -0.00016570102796835
  27    -1.6477073817009e-16
  28    4.0363769643132e-16
  29     -0.00282580960794
  30    -0.00012835146435398
  31    -6.1540623694187e-16
  32    3.1346207904489e-17
  33    9.6195160130031e-17
  34    -9.9026793998904e-17
  35    4.3286397256937e-17
  36    -4.0323826736064e-17
  37    4.4180004058358e-16
  38    7.893156825412e-18
  39    -3.3296667573771e-16
  40    -4.146418993028e-16
  41    6.4010615371189e-18
  42    9.2788887486913e-16
  43    -4.9458366437861e-16
  44    1.2269842459454e-15
  45    -1.1022469857906e-15
  46    -0.0085092086362623
  47    -9.5094246214996e-16
  48     -0.13246960579057
  49    -0.0049127938967369
  50    -1.2608853127254e-16
  51     0.046880288397136
  52    1.4344129989846e-15
  53      0.72982266492468
  54     0.027066347125774
  55    1.6432425034632e-15
  56    2.826807528998e-16
  57    0.00016570102796808
  58    -2.4211145523405e-17
  59    -3.3602053728042e-16
  60    0.0028258096079402
  61    0.00012835146435285
  62    -6.3930684344609e-17
 Sym= A
 Ene=              13
 Spin= Alpha
 Occup=    1.00000
   1    -6.3560290012967e-16
   2    2.9766263655865e-16
   3    7.5266678253752e-16
   4    -1.6098604763894e-15
   5    1.0216241407064e-15
   6    2.3869938979014e-15
   7    -1.2942859074179e-16
   8    -1.181363879004e-16
   9    -1.1208411465966e-15
  10    -6.8340348881679e-16
  11    4.6281383105712e-16
  12    -1.1005589327748e-16
  13    -1.1085861557308e-16
  14    -6.600561446105e-16
  15      0.11472204384395
  16    5.1447998193184e-16
  17    -0.0098255877934732
  18     0.066234802895286
  19    -4.5265950890093e-17
  20     -0.63204496808243
  21    -3.8917332041394e-15
  22     0.054132694251548
  23     -0.36491133246234
  24    2.8206890499623e-15
  25    -1.4224656905919e-16
  26    0.0022339986487695
  27    3.5412166736426e-16
  28    -8.4750425131891e-16
  29    -0.00020959706360378
  30    0.0017304479124271
  31    -2.432151178914e-16
  32    8.1653766731777e-16
  33    -7.9959506429826e-16
  34    -1.662136943606e-16
  35    6.1006146923977e-16
  36    -4.2448991388498e-16
  37    -2.7754832930646e-15
  38    -2.1405479582313e-16
  39    1.2657978078334e-15
  40    2.0694670287362e-15
  41    -2.4804817904965e-15
  42    2.9260959301828e-16
  43    -2.5925915567663e-15
  44    7.3373089677488e-16
  45    -1.007653097963e-15
  46      0.11472204384395
  47    -4.0840538770053e-16
  48    -0.0098255877934729
  49     0.066234802895286
  50    3.6392968560616e-17
  51     -0.63204496808243
  52    3.2722358741902e-15
  53     0.054132694251548
  54     -0.36491133246234
  55    -1.1286767667013e-15
  56    9.7108904877629e-17
  57    -0.0022339986487697
  58    -1.835037188755e-19
  59    -9.7697931011034e-17
  60    0.00020959706360381
  61    -0.0017304479124268
  62    3.2952803281018e-17
 Sym= A
 Ene=              14
 Spin= Alpha
 Occup=    1.00000
   1    4.6535635642204e-17
   2    -2.1766898345314e-15
   3    3.8579423234018e-15
   4    -6.8267594997875e-15
   5    5.8058798796038e-15
   6    3.9940636976115e-15
   7    -0.015585374512913
   8    -0.0037889679624683
   9    -5.548481191966e-15
  10     0.051370432993859
  11     0.012488690898674
  12    4.7772298528964e-15
  13     -0.11887275590889
  14    -0.028899213385977
  15    1.2970639044371e-15
  16     0.028054740415156
  17    4.1820547662884e-16
  18    -3.0326872007234e-15
  19        0.115399137856
  20    -9.3795846054014e-15
  21     -0.15495165506149
  22    -1.1188125690459e-15
  23    1.469196413819e-14
  24     -0.63737133685239
  25    -0.00031146666215129
  26    4.3433118989202e-16
  27    -0.00052303680841903
  28    0.00040210173180315
  29    -4.651109068376e-17
  30    -4.0820329568682e-17
  31    0.0020257128484589
  32    -1.6967493282676e-16
  33    -7.6449773746065e-16
  34    1.6007863090547e-15
  35    -5.2651684029004e-15
  36    5.1551908209023e-15
  37    -2.3038467513619e-15
  38    -0.015585374512913
  39    -0.0037889679624693
  40    3.5742775144403e-15
  41     0.051370432993859
  42     0.012488690898676
  43    -6.5280607231225e-15
  44     -0.11887275590889
  45    -0.028899213385977
  46    1.4456429004128e-15
  47    -0.028054740415156
  48    -5.1196881026253e-16
  49    -3.4076992838508e-15
  50       -0.115399137856
  51    -9.0858962960215e-15
  52      0.15495165506149
  53    -3.8599894423388e-16
  54    1.5233726882364e-14
  55      0.63737133685239
  56    -0.00031146666215131
  57    7.5391900013407e-16
  58    -0.00052303680841868
  59    0.00040210173180356