[Molden Format]
made by pyscf v[2.1.1]
[Atoms] (AU)
Cr   1   24     0.00000000000000     0.00000000000000     0.00000000000000
Cr   2   24     3.77945224913012     0.00000000000000     0.00000000000000
[GTO]
1 0
 s    6 1.00
          51528.086349  0.0017695545768669
          7737.2103487   0.013556436258096
           1760.374847   0.067162645785071
          496.87706544    0.23295905918518
          161.46520598    0.47040576982722
          55.466352268    0.35733072606876
 s    3 1.00
          107.54732999   -0.10605255446629
          12.408671897    0.62543981484169
          5.0423628826    0.44878820793655
 s    3 1.00
          8.5461640165   -0.21819012081133
          1.3900441221    0.70422525667731
         0.56066602876    0.42488555412558
 s    1 1.00
        0.071483705972                   1
 s    1 1.00
        0.028250687604                   1
 p    5 1.00
          640.48536096  0.0093555063746755
          150.69711194   0.068993338492216
          47.503755296     0.2634118959318
          16.934120165    0.51034501651775
           6.240968059    0.33195512953954
 p    3 1.00
          3.0885463206    0.32917682676976
          1.1791047769    0.55491385190365
         0.43369774432    0.23818412855984
 p    1 1.00
              0.120675                   1
 d    4 1.00
          27.559479426   0.036950140313562
          7.4687020327    0.18821519783039
          2.4345903574    0.44641244239929
         0.78244754808     0.5681617303244
 d    1 1.00
         0.21995774311                   1
 f    1 1.00
                 1.147                   1

2 0
 s    6 1.00
          51528.086349  0.0017695545768669
          7737.2103487   0.013556436258096
           1760.374847   0.067162645785071
          496.87706544    0.23295905918518
          161.46520598    0.47040576982722
          55.466352268    0.35733072606876
 s    3 1.00
          107.54732999   -0.10605255446629
          12.408671897    0.62543981484169
          5.0423628826    0.44878820793655
 s    3 1.00
          8.5461640165   -0.21819012081133
          1.3900441221    0.70422525667731
         0.56066602876    0.42488555412558
 s    1 1.00
        0.071483705972                   1
 s    1 1.00
        0.028250687604                   1
 p    5 1.00
          640.48536096  0.0093555063746755
          150.69711194   0.068993338492216
          47.503755296     0.2634118959318
          16.934120165    0.51034501651775
           6.240968059    0.33195512953954
 p    3 1.00
          3.0885463206    0.32917682676976
          1.1791047769    0.55491385190365
         0.43369774432    0.23818412855984
 p    1 1.00
              0.120675                   1
 d    4 1.00
          27.559479426   0.036950140313562
          7.4687020327    0.18821519783039
          2.4345903574    0.44641244239929
         0.78244754808     0.5681617303244
 d    1 1.00
         0.21995774311                   1
 f    1 1.00
                 1.147                   1

[5d]
[7f]
[9g]

[MO]
 Sym= A
 Ene=               0
 Spin= Alpha
 Occup=    1.00000
   1    -0.0074023985828661
   2    0.0075947933533728
   3     -0.19947653221596
   4       5.9665860858692
   5      -1.9510126633624
   6    -0.0092896168330365
   7    -1.6608792888427e-15
   8    6.7431514112318e-16
   9     0.036453891860194
  10    4.9865872472907e-16
  11    -1.7842865258798e-15
  12       2.6716874887533
  13    -2.1891074129302e-15
  14    1.4249962524364e-15
  15     0.028311013213506
  16    -8.3034439587929e-16
  17    9.3201661192023e-16
  18    -0.049036113299543
  19    1.4421963948711e-15
  20     -0.40787929716237
  21    1.8384321703226e-16
  22    8.7941199924166e-16
  23       0.7064676660407
  24    -1.6140185788347e-15
  25    -1.2496881319478e-16
  26    -0.022801166620333
  27    -1.2121759059948e-17
  28    -1.0461494843839e-16
  29    6.0157490692843e-17
  30      0.02943617953155
  31    -1.3238563616173e-16
  32    -0.0056886911843119
  33     0.020471239061913
  34    -0.084651896036694
  35      -4.2491557503855
  36      0.99726787271221
  37    0.0048753496101029
  38    1.3954674648066e-16
  39    -1.8700571751317e-16
  40    -0.019909297145478
  41    6.6731704537582e-17
  42    -1.9684355588864e-16
  43       2.9346349838232
  44    -9.5701962766207e-17
  45    -1.2190454963794e-15
  46    -0.041464307566105
  47    6.2987758835085e-16
  48    4.0386992651689e-16
  49     0.071818287405157
  50    6.965620305047e-16
  51       0.4617390456609
  52    7.141326690567e-16
  53    -3.8657201706559e-17
  54     -0.79975548692305
  55    2.1696632499777e-15
  56    4.7635349102822e-17
  57    -0.023432086459852
  58    2.5873919095572e-17
  59    -7.0433462524895e-17
  60    -5.1656359839162e-17
  61     0.030250693541966
  62    -8.1314543912412e-17
 Sym= A
 Ene=               1
 Spin= Alpha
 Occup=    1.00000
   1    -9.0403466312442e-17
   2    -4.1357625460744e-17
   3    2.1858420025213e-16
   4    -5.1113768020103e-15
   5    1.588826031829e-15
   6    5.3764918747753e-16
   7    -0.00065319389160916
   8    -2.6371962988496e-16
   9    -2.204112451676e-16
  10    0.0028539983777594
  11    6.3048167940054e-16
  12    -2.0587953995656e-15
  13    -0.032907800105949
  14    5.2129473723631e-16
  15    3.4506480239888e-16
  16    3.2321688788405e-16
  17    2.305458351805e-16
  18    6.5430267424588e-17
  19       1.0569847651398
  20    6.1844459918712e-16
  21    6.0146045146641e-16
  22    -2.8485910103275e-16
  23    -6.0452684310656e-16
  24     -0.22593736416997
  25    1.4403216002584e-16
  26    3.5725904311639e-16
  27    0.00079883327059648
  28    6.9362907116782e-17
  29    -5.6413658253483e-17
  30    -6.4399152984495e-16
  31    -0.0030938679534155
  32    -2.2654667433476e-16
  33    -1.5587420018114e-16
  34    4.7177824530314e-16
  35    3.0962585944386e-15
  36    -4.3257419343222e-16
  37    -4.0899800499477e-16
  38    -0.001128237353422
  39    4.6140482634865e-16
  40    2.7931076410852e-17
  41    0.0055268956389872
  42    -2.0659876468655e-16
  43    -2.1301573600999e-15
  44     0.050645539493354
  45    -3.1587141292256e-16
  46    4.9598606247148e-16
  47    1.2881803403465e-16
  48    4.9956164932367e-17
  49    4.6775157101709e-16
  50    -0.0037593987273245
  51    -1.4037385231754e-15
  52    2.4571807813246e-16
  53    3.9641338190334e-16
  54    3.2992670159688e-16
  55       -0.027444052387
  56    -1.4958202431827e-16
  57    -1.0521316620549e-16
  58    -0.00083167243528874
  59    -1.4055306163893e-16
  60    -8.2479943638332e-17
  61    -3.1637834220793e-16
  62    0.0032210534913723
 Sym= A
 Ene=               2
 Spin= Alpha
 Occup=    1.00000
   1    1.2618715284729e-16
   2    4.4060151280445e-17
   3    1.5939359683432e-16
   4    -5.8235643990347e-15
   5    1.9160236286397e-15
   6    7.6012638549866e-17
   7    -1.4960059683639e-16
   8    1.2692229900898e-16
   9    -1.80179928491e-16
  10    -4.8662905826143e-16
  11    4.029635874728e-17
  12    -2.3503893418999e-15
  13    3.7246443346136e-18
  14    -1.3986399737687e-16
  15    -2.6276502946965e-17
  16    1.1862018608531e-16
  17       1.0520534866706
  18    4.2496802503103e-17
  19    -2.4758627216518e-16
  20    -2.8904554535176e-16
  21    -5.6923243085856e-16
  22     -0.19497386843464
  23    -8.9030737052636e-16
  24    3.4029981560206e-16
  25    -5.9044754400213e-17
  26    7.0397883948646e-17
  27    1.9684056323475e-16
  28    -1.4588896576456e-16
  29    -0.00047991873122336
  30    -1.6169094110411e-16
  31    -3.3404020110741e-16
  32    -1.4970159824419e-16
  33    4.4008327036169e-17
  34    -1.4990367542213e-17
  35    3.8881710275521e-15
  36    -8.8567372259868e-16
  37    5.1611599102918e-16
  38    -3.0878131809491e-16
  39    -4.8398128754667e-16
  40    -1.6412944304046e-16
  41    2.3050917400691e-16
  42    7.4819463237031e-16
  43    -2.8264140834918e-15
  44    -6.4760536353161e-17
  45     4.26631952279e-16
  46    5.2419882998983e-16
  47    9.8768649759073e-17
  48    -0.0016808496344601
  49    1.6362732665493e-16
  50    9.4807111101947e-16
  51    -3.0675201176531e-16
  52    -2.443933370133e-17
  53     0.016031209025119
  54    9.0895548784997e-16
  55    -1.1845548508147e-16
  56    -5.9206000454013e-16
  57    -1.5888561037832e-16
  58    -1.2276367115973e-16
  59    -1.6561410632003e-16
  60    -0.0034698507557753
  61    1.7876225047388e-16
  62    1.5470294679101e-16
 Sym= A
 Ene=               3
 Spin= Alpha
 Occup=    1.00000
   1    -0.00025215722042142
   2    0.00051349354839891
   3    -0.0057340998610433
   4      0.02831101321348
   5    -0.0040662115687949
   6    0.0014049807651198
   7    -1.6370802937911e-16
   8    1.9144584846391e-16
   9    -0.0061313144932228
  10    4.5440936028295e-16
  11    2.8723670174548e-16
  12     0.027138830441373
  13    3.9588737636463e-16
  14    -2.5779585883801e-16
  15       1.0539480911042
  16    -7.4881054617081e-16
  17    5.4884319275041e-17
  18    -0.0032815511390711
  19    -4.6587092260846e-16
  20     -0.20113887567128
  21    -1.4023494840734e-17
  22    3.6998866825932e-16
  23     0.010678105762884
  24    3.7670656287582e-16
  25    -4.9395612134618e-17
  26    -0.0003700304207373
  27    -2.4390212921668e-17
  28    1.8591355585634e-16
  29    8.3794244915534e-17
  30    -0.00020100035949781
  31    -1.5599198981731e-16
  32    -0.00081171058025624
  33    0.0013080863901819
  34     -0.01842290718234
  35    -0.041464307566088
  36     0.015637924948606
  37    -0.002053990633219
  38    -2.7123470219272e-16
  39    -9.3786093462844e-17
  40     0.010560667201679
  41    3.4300167794187e-16
  42    3.8115447559736e-16
  43     0.011908533359684
  44    -5.6636908299954e-16
  45    2.4664814432702e-16
  46    -0.00058923128317764
  47    7.1493182394729e-16
  48    -5.9147302862937e-16
  49    -0.0018907384468966
  50    1.2178310813862e-16
  51    0.0036388773441985
  52    -3.5722791132074e-16
  53    -6.0789274128208e-17
  54     0.021464148095603
  55    2.5263490683957e-16
  56    -9.0158354389088e-17
  57    0.0026906272935366
  58    2.2273378593658e-17
  59    2.6083470343371e-16
  60    -2.2840580306067e-17
  61    -0.008380694897802
  62    2.1701129534213e-16
 Sym= A
 Ene=               4
 Spin= Alpha
 Occup=    1.00000
   1    1.5903792382667e-16
   2    7.1168268308534e-17
   3    -6.4331599468632e-16
   4    3.7406420610195e-15
   5    -1.2838381903248e-15
   6    8.8960963390747e-17
   7    1.4799522015303e-16
   8    -0.00065319389161003
   9    1.5336781881051e-16
  10    3.8909749150839e-16
  11    0.0028539983777585
  12    1.4117428311262e-15
  13    -4.2478123983614e-16
  14    -0.032907800105948
  15    7.687042628413e-16
  16       1.0569847651398
  17    3.9352227096579e-17
  18    3.8276415434658e-16
  19    -3.9891244161986e-16
  20    -3.7848441041929e-16
  21     -0.22593736416997
  22    -3.1666023631297e-16
  23    4.6620605026448e-16
  24    -6.9518140840578e-17
  25    0.0019567339025191
  26    -1.3363146393457e-16
  27    1.8527675932752e-16
  28    -0.0025261326058057
  29    -4.399599897802e-17
  30    2.7379383013866e-16
  31    -1.6749770365903e-16
  32    1.8392704292725e-16
  33    -1.580395308082e-16
  34    -1.5245988995757e-16
  35    -2.5291380810092e-15
  36    6.5158826042721e-16
  37    2.584692351871e-17
  38    3.1794773061232e-17
  39    -0.0011282373534227
  40    4.6456462571601e-16
  41    5.8707303149884e-17
  42    0.0055268956389865
  43    8.7008681396071e-16
  44    5.0217849861248e-16
  45     0.050645539493354
  46    2.7319767232279e-16
  47    -0.0037593987273253
  48    -3.0630816442643e-17
  49    1.3147875834166e-16
  50    8.6310196264138e-17
  51    5.8133259294843e-16
  52       -0.027444052387
  53    -1.4481770541151e-16
  54    -8.6395256707941e-16
  55    3.484059108807e-16
  56    -0.002037173099595
  57    -3.4753504146273e-17
  58    -1.6388368513875e-16
  59    0.0026299791626907
  60    -1.9316569702766e-17
  61    4.2537109440259e-16
  62    -1.6994148628547e-17
 Sym= A
 Ene=               5
 Spin= Alpha
 Occup=    1.00000
   1    0.00043674911726448
   2    -0.00088939691518642
   3    0.0099317522950019
   4    -0.049036113299512
   5    0.0070428850314807
   6    -0.0024334980688443
   7    1.1619292306604e-16
   8    -2.9681910547966e-16
   9     0.010619748219445
  10    -7.6980770388291e-16
  11    9.8796187659151e-17
  12    -0.047005833182459
  13    -4.261517135987e-16
  14    1.3545179318145e-16
  15    -0.0032815511390724
  16    -5.1050535551181e-16
  17    -1.5210989356767e-17
  18       1.0577372999712
  19    3.8142847496194e-17
  20     0.010678105762886
  21    5.3419178897271e-16
  22    3.3202988755096e-16
  23     -0.21346889014455
  24    -4.7062398257967e-16
  25    -1.3626478118144e-16
  26    -0.00011790665215823
  27    1.2752493628845e-18
  28    1.540272649557e-16
  29    5.7079455047614e-17
  30    -0.00023963516976179
  31    -2.021243895349e-16
  32    0.0014059239660456
  33    -0.0022656720884834
  34     0.031909411262938
  35     0.071818287405135
  36    -0.027085680535936
  37    0.0035576161350053
  38    1.2614566081779e-16
  39    -1.6252639610986e-16
  40    -0.018291612155134
  41    -3.1110798400698e-16
  42    4.5123241300183e-16
  43    -0.020626184822606
  44    3.3753585674884e-16
  45    1.2803217472215e-16
  46    -0.0018907384468961
  47    -2.6938106947942e-16
  48    -2.3368554645141e-16
  49    0.0015940054193881
  50    2.979809599059e-16
  51     0.021464148095602
  52    -1.1041460049608e-16
  53    -3.8042252813232e-16
  54    -0.021145786017646
  55    -4.4309811474733e-16
  56    -1.1966936885169e-16
  57    -0.010146618941191
  58    -2.1536946692357e-17
  59    1.2691170233369e-16
  60    -9.1464231255245e-18
  61     0.010266107448095
  62    1.9510282364463e-16
 Sym= A
 Ene=               6
 Spin= Alpha
 Occup=    1.00000
   1    0.0068034247937003
   2    -0.019406293508138
   3      0.10236288712452
   4      0.69716934223145
   5     -0.24650273256967
   6    -0.046760395429244
   7    1.2313199480817e-14
   8    -3.375868305876e-14
   9      0.14816024127624
  10    -3.2505165474025e-14
  11    4.089750182756e-16
  12      0.37624955018463
  13    2.204737370468e-16
  14    -4.2136709820159e-16
  15    -0.050293159147661
  16    1.4188152455603e-16
  17    -8.5857520987257e-17
  18     0.087110306916897
  19    -2.0371643357981e-16
  20      0.16968678360293
  21    -2.169660785708e-15
  22    6.8646136009115e-16
  23     -0.29390613057324
  24    1.4062238531754e-15
  25    -4.6472746106369e-17
  26    0.0046968716332212
  27    3.1920194139682e-18
  28    -4.3358246532399e-17
  29    1.9796295928207e-17
  30    -0.0060636352049134
  31    -7.5583554524604e-17
  32     0.011931702787496
  33    -0.029505873740882
  34      0.18965627275595
  35     -0.80259949967627
  36      0.18785192294435
  37     0.016065004527395
  38    1.5444124524485e-14
  39    2.0016565392882e-14
  40    -0.072055069028167
  41    -3.3053286313011e-14
  42    2.1833167195243e-15
  43       0.4447845962851
  44    1.1303507796904e-15
  45    -8.6903355710072e-16
  46      0.34406023325172
  47    3.3979692562127e-15
  48    7.2164358226708e-16
  49     -0.59592980485599
  50    -3.0045987586954e-15
  51      0.23504434502821
  52    1.4304836767023e-15
  53    7.8762161116909e-17
  54     -0.40710874762061
  55    -1.2382155993587e-15
  56    -8.4699542605366e-18
  57    -0.019770908777897
  58    -1.7962530413119e-17
  59    -6.4306304689758e-17
  60    -7.1623362721971e-18
  61     0.025524133478727
  62    3.0357743083101e-17
 Sym= A
 Ene=               7
 Spin= Alpha
 Occup=    1.00000
   1    -6.7318016108246e-16
   2    -2.5141013310939e-17
   3    -2.2733669676447e-16
   4    2.2932442011063e-14
   5    -1.0978648453654e-14
   6    6.0495839819747e-16
   7    -1.9882000822762e-17
   8    -4.6689125369765e-16
   9    -1.2797787789419e-15
  10    9.2085340945916e-16
  11    3.9339074838052e-16
  12    1.0443372477601e-14
  13    -7.3827565386097e-16
  14    3.5027253041868e-16
  15    -0.001050595201278
  16    -4.7746818296747e-16
  17       0.0882846647051
  18    -0.0006065614222674
  19    5.4109536785055e-16
  20    0.0056609297865768
  21    8.1124592270979e-16
  22     -0.47570490282017
  23    0.0032683393361469
  24    -1.7220712277849e-15
  25    -6.1388517421218e-17
  26    5.412762401645e-05
  27    1.5621213361927e-16
  28    -7.9595784128995e-17
  29    -0.0049826392632421
  30    4.1927077277155e-05
  31    -2.9733663107559e-16
  32    -3.6382733828228e-16
  33    2.0887935870767e-16
  34    7.8815312521931e-16
  35    -1.8347570902815e-14
  36    1.1287518727196e-15
  37    -9.2609865873001e-16
  38    9.2385317061426e-16
  39    1.0070236280823e-15
  40    -1.2246157993551e-15
  41    -6.9569335664286e-16
  42    -1.8748620705067e-16
  43    1.2424259712881e-14
  44    -5.3165859662814e-16
  45    5.7380882635139e-16
  46    0.0080424366466557
  47    -1.3701515503673e-15
  48     -0.67583006461336
  49    0.0046433029628879
  50    2.5702982636154e-15
  51    0.0038400952334003
  52    -7.8907308712373e-16
  53     -0.32269471600843
  54    0.0022170800167125
  55    1.3332454624403e-15
  56    -4.4281893253491e-16
  57    -2.30134190954e-05
  58    -7.7815895117773e-17
  59    -1.0521424202473e-16
  60    0.0021184666360018
  61    -1.7826117778685e-05
  62    7.0857655540316e-17
 Sym= A
 Ene=               8
 Spin= Alpha
 Occup=    1.00000
   1    -1.0090742013076e-16
   2    3.7622016123331e-16
   3    1.0610595227745e-15
   4    1.4718350605856e-15
   5    -2.2342918005073e-15
   6    -3.6867637543992e-16
   7    -1.022186806338e-16
   8    -2.0211292258204e-17
   9    1.3619615493607e-16
  10    -8.6942455439071e-17
  11    -3.5934772012606e-16
  12    -7.3175967582897e-16
  13    -4.5133259998454e-16
  14    8.7975536996046e-16
  15     0.076456762399211
  16    -2.6052990687938e-16
  17    0.0012131228445343
  18     0.044142332352551
  19    2.3861418523136e-16
  20     -0.41197253054708
  21    2.6797272857565e-15
  22    -0.0065366786722889
  23     -0.23785245141008
  24    -1.1599278726498e-15
  25    -1.2855390796917e-16
  26    -0.003939122207707
  27    -2.231211431395e-18
  28    2.3073495662935e-16
  29    -6.8466630490083e-05
  30    -0.0030512309418253
  31    -2.0727172194603e-16
  32    -3.6738558877134e-18
  33    -9.5214099861313e-16
  34    -2.815296424904e-15
  35    2.4001212707556e-15
  36    -2.1846244462172e-15
  37    -1.0897809696349e-15
  38    -3.7874479367836e-16
  39    3.5283325606166e-16
  40    3.4776287849232e-15
  41    1.0251059046643e-15
  42    -9.6764655571861e-17
  43    7.9639230254414e-17
  44    -4.6283704071157e-16
  45    9.4105448386479e-16
  46     -0.58528600459644
  47    -3.0114920691647e-15
  48    -0.0092866059257751
  49     -0.33791503230667
  50    1.5520180630887e-15
  51     -0.27946182173032
  52    -2.0553518289045e-15
  53    -0.0044341600334321
  54     -0.16134735800422
  55    5.9807299101559e-16
  56    -1.445270050313e-16
  57    0.0016747949292101
  58    9.3693389891179e-18
  59    2.5148210826023e-16
  60    2.910992843548e-05
  61    0.0012972905738279
  62    1.975662108332e-16
 Sym= A
 Ene=               9
 Spin= Alpha
 Occup=    1.00000
   1    1.1742215785849e-13
   2    -9.5502022744172e-14
   3    1.394696830991e-15
   4    -1.1829831010498e-13
   5    5.282820472802e-14
   6    7.031897477043e-14
   7    -0.039045533903145
   8    -0.0040522641986546
   9    -9.2196961456371e-15
  10      0.12453941034111
  11     0.012925078579146
  12    -5.9246923456951e-14
  13     -0.16287944765772
  14    -0.016904124197895
  15    -1.5005960217971e-15
  16    0.0093718380788683
  17    -8.657085908883e-16
  18    1.6402447080758e-15
  19     0.090302212167475
  20    1.275246231646e-14
  21    -0.045068600162612
  22    1.9172481235307e-15
  23    -1.9389566788469e-14
  24     -0.43425785419315
  25    0.00084183631890025
  26    8.9539404520135e-16
  27    0.0033115067618302
  28    -0.0010868060144443
  29    -2.4130860739558e-17
  30    -1.2601031884263e-15
  31    -0.012825410539421
  32    -5.1040316577034e-14
  33    4.1032819109145e-14
  34    -2.0340392042705e-14
  35    1.1010236862789e-13
  36    -1.18371943805e-14
  37    1.2152653497087e-13
  38    -0.027668840145856
  39    -0.0028715563379273
  40    1.0793609503836e-14
  41     0.094280633113273
  42    0.0097847306979837
  43    -6.6700227140898e-14
  44     -0.10664640504739
  45    -0.011068088098925
  46    4.8814169378851e-15
  47     0.063183608987121
  48    2.3709091387907e-15
  49    -6.0995374875074e-15
  50       0.6088047634035
  51    -8.2059871164149e-15
  52     0.027576026558164
  53    1.8945451969579e-15
  54    1.4985160305526e-14
  55      0.26570841066982
  56    0.00056573802647125
  57    1.6285188733877e-16
  58    0.0022254270313872
  59    -0.00073036465161337
  60    -7.0064830198163e-17
  61    -4.9071682018019e-16
  62    -0.008619041830763
 Sym= A
 Ene=              10
 Spin= Alpha
 Occup=    1.00000
   1    -4.0805112600985e-14
   2    -1.8367434066274e-14
   3    7.1543673677455e-14
   4    -7.5654344315755e-14
   5    2.350819044476e-14
   6    -3.5530721033882e-14
   7    0.0040522641989823
   8    -0.039045533903087
   9    -8.7397254813166e-15
  10    -0.012925078579347
  11      0.12453941034076
  12    -3.2122268588479e-14
  13     0.016904124197895
  14     -0.16287944765772
  15    -2.271749315506e-16
  16     0.090302212167476
  17    1.1922988990074e-17
  18    1.701290643045e-15
  19    -0.0093718380788686
  20    9.521759037906e-16
  21     -0.43425785419315
  22    -1.4268765279867e-15
  23    -8.2775851335552e-15
  24     0.045068600162611
  25    0.0081115018462597
  26    4.9770075582116e-17
  27    -0.00034367823804121
  28    -0.010471903854432
  29    -3.7923671297386e-17
  30    -5.1755746797072e-17
  31    0.0013310600923878
  32    -1.4611262363061e-14
  33    -5.3639301721828e-14
  34    6.9315116067688e-14
  35    4.8707670155957e-14
  36    -1.2714347150611e-14
  37    -4.3748250699516e-14
  38    0.0028715563378031
  39    -0.027668840145933
  40    9.1595342240906e-15
  41    -0.0097847306981974
  42     0.094280633112922
  43    -3.6352083663897e-14
  44     0.011068088098927
  45     -0.10664640504738
  46    -3.8868122814553e-15
  47       0.6088047634035
  48    -1.776323975903e-15
  49    -1.1132681667094e-15
  50    -0.063183608987121
  51    -8.0825328729298e-15
  52      0.26570841066982
  53    -1.0122007687951e-15
  54    1.0044569681672e-14
  55    -0.027576026558162
  56    0.0054511606866958
  57    3.9651429733182e-16
  58    -0.00023096158215736
  59    -0.0070374181856913
  60    -1.8728162818031e-19
  61    -2.1554394464707e-16
  62    0.00089451036130877
 Sym= A
 Ene=              11
 Spin= Alpha
 Occup=    1.00000
   1    -0.020454670621638
   2      0.05979244723815
   3     -0.21454561137289
   4       3.1529772735126
   5       -1.390921806893
   6     -0.02764280166536
   7    -8.1520705467181e-15
   8    1.3219141839911e-15
   9     0.079127371678906
  10    1.7015915755847e-14
  11    -4.4822775041471e-16
  12       1.5988081721435
  13    -6.0814236176871e-15
  14    -2.6463156270525e-15
  15     0.025100151193836
  16    1.9108584289559e-15
  17    -6.7192247413112e-16
  18    -0.043474737145384
  19    2.7836880217483e-15
  20     -0.28462549071189
  21    -9.1836240624444e-15
  22    3.3455252457909e-15
  23      0.49298581104221
  24    -1.3470854406844e-14
  25    1.1163511160745e-16
  26    -0.016374989837803
  27    8.3123610692611e-17
  28    -2.9425538946261e-16
  29    6.5150185512487e-17
  30     0.021140020978709
  31    -4.2421318666748e-16
  32    0.0057434194185983
  33    -0.010691807566182
  34      0.13650525655443
  35      -3.0061062017988
  36      0.38873557435964
  37    -0.0061469130058416
  38    -3.9264397159167e-15
  39    -6.2918537803735e-15
  40     0.011442558502766
  41    1.5292680870817e-14
  42    -3.603354256317e-15
  43       1.7790754317629
  44    -3.3704029102425e-15
  45    -2.8604796190256e-15
  46     -0.08220279966445
  47    1.3434299124986e-14
  48    4.4790309756029e-15
  49      0.14237942554324
  50    1.8178487671913e-14
  51       0.2490363366681
  52    5.9665426821371e-15
  53    1.7445669014194e-15
  54     -0.43134358803997
  55    9.1789134190685e-15
  56    1.5180132979737e-16
  57    -0.010158440354047
  58    8.0599623458925e-17
  59    -1.895018215839e-16
  60    -4.0838576548185e-17
  61     0.013114490104888
  62    -2.9402323407197e-16
