[Molden Format]
made by pyscf v[2.1.1]
[Atoms] (AU)
Cr   1   24     0.00000000000000     0.00000000000000     0.00000000000000
Cr   2   24     3.77945224913012     0.00000000000000     0.00000000000000
[GTO]
1 0
 s    6 1.00
          51528.086349  0.0017695545768669
          7737.2103487   0.013556436258096
           1760.374847   0.067162645785071
          496.87706544    0.23295905918518
          161.46520598    0.47040576982722
          55.466352268    0.35733072606876
 s    3 1.00
          107.54732999   -0.10605255446629
          12.408671897    0.62543981484169
          5.0423628826    0.44878820793655
 s    3 1.00
          8.5461640165   -0.21819012081133
          1.3900441221    0.70422525667731
         0.56066602876    0.42488555412558
 s    1 1.00
        0.071483705972                   1
 s    1 1.00
        0.028250687604                   1
 p    5 1.00
          640.48536096  0.0093555063746755
          150.69711194   0.068993338492216
          47.503755296     0.2634118959318
          16.934120165    0.51034501651775
           6.240968059    0.33195512953954
 p    3 1.00
          3.0885463206    0.32917682676976
          1.1791047769    0.55491385190365
         0.43369774432    0.23818412855984
 p    1 1.00
              0.120675                   1
 d    4 1.00
          27.559479426   0.036950140313562
          7.4687020327    0.18821519783039
          2.4345903574    0.44641244239929
         0.78244754808     0.5681617303244
 d    1 1.00
         0.21995774311                   1
 f    1 1.00
                 1.147                   1

2 0
 s    6 1.00
          51528.086349  0.0017695545768669
          7737.2103487   0.013556436258096
           1760.374847   0.067162645785071
          496.87706544    0.23295905918518
          161.46520598    0.47040576982722
          55.466352268    0.35733072606876
 s    3 1.00
          107.54732999   -0.10605255446629
          12.408671897    0.62543981484169
          5.0423628826    0.44878820793655
 s    3 1.00
          8.5461640165   -0.21819012081133
          1.3900441221    0.70422525667731
         0.56066602876    0.42488555412558
 s    1 1.00
        0.071483705972                   1
 s    1 1.00
        0.028250687604                   1
 p    5 1.00
          640.48536096  0.0093555063746755
          150.69711194   0.068993338492216
          47.503755296     0.2634118959318
          16.934120165    0.51034501651775
           6.240968059    0.33195512953954
 p    3 1.00
          3.0885463206    0.32917682676976
          1.1791047769    0.55491385190365
         0.43369774432    0.23818412855984
 p    1 1.00
              0.120675                   1
 d    4 1.00
          27.559479426   0.036950140313562
          7.4687020327    0.18821519783039
          2.4345903574    0.44641244239929
         0.78244754808     0.5681617303244
 d    1 1.00
         0.21995774311                   1
 f    1 1.00
                 1.147                   1

[5d]
[7f]
[9g]

[MO]
 Sym= A
 Ene=               0
 Spin= Alpha
 Occup=    1.00000
   1    -0.020077663374719
   2     0.063520339678848
   3     -0.23573067443092
   4      -2.9104348774774
   5      0.21257660786039
   6    -0.033936890839344
   7    -8.1660490638267e-16
   8    -5.0770292156647e-15
   9      0.10711873241586
  10    3.1271580275296e-15
  11    -1.4559581599824e-16
  12      -2.4341917292515
  13    4.3495505014121e-16
  14    -1.1368866199114e-15
  15    -0.042848651773447
  16    1.1896083379421e-16
  17    7.8422240535854e-17
  18     0.074216041907437
  19    1.6897871583695e-16
  20      0.40189835583631
  21    -3.7022480666398e-16
  22    -1.2276055872463e-16
  23     -0.69610837178688
  24    -6.9721619672697e-16
  25    1.1980182887438e-16
  26     0.018326000752012
  27    4.2014728201702e-17
  28    6.5709381820265e-17
  29    -5.4021301226122e-17
  30    -0.023658765238376
  31    -1.4808524454005e-18
  32    -0.0029270357753786
  33    -0.0035235520763138
  34     -0.11586673409291
  35       5.1132272499169
  36      -2.1012935484783
  37     0.010114498151042
  38    5.6043554610033e-16
  39    -2.0164033201716e-16
  40    -0.050213930125434
  41    2.7937072229138e-15
  42    -3.4973470591361e-15
  43      -1.9710275819792
  44    1.4810427488964e-16
  45    5.0200202776567e-16
  46     0.040618307391321
  47    -9.8639386746603e-17
  48    8.4027646924925e-16
  49    -0.070352972119217
  50    1.2405143139858e-15
  51     -0.28600773996865
  52    -2.4132860329264e-16
  53    4.0284262160215e-16
  54      0.49537993698365
  55    -8.5717201331768e-16
  56    -4.3863732285552e-17
  57       0.0174027162785
  58    -2.4273957722105e-17
  59    4.5789656636687e-17
  60    2.5097022888628e-17
  61    -0.022466810108468
  62    6.0407487492864e-17
 Sym= A
 Ene=               1
 Spin= Alpha
 Occup=    1.00000
   1    -1.0776417803587e-13
   2    8.1709164241344e-14
   3    1.2419629369146e-14
   4    1.3124352436685e-14
   5    -6.3389620533098e-15
   6    -6.5351277992457e-14
   7     0.036687699908837
   8    -1.7010964686168e-13
   9    6.0014406324417e-15
  10     -0.11960795753385
  11    1.595736926316e-13
  12    8.923875966014e-15
  13     0.078722985889562
  14    -1.1079933678362e-15
  15    1.174931780186e-16
  16    5.6967583534973e-16
  17    -9.2660779622282e-16
  18    -2.0383073539102e-16
  19    -0.086393352663715
  20    -2.2615072102129e-15
  21    -7.1078819823434e-16
  22    7.1396182536549e-16
  23    2.5367731978638e-15
  24      0.35433732790622
  25    -1.2543321145317e-16
  26    -5.6106525864648e-16
  27    -0.0018663769911977
  28    4.5447762552561e-16
  29    -5.9728319563376e-17
  30    -1.9058688414987e-16
  31    0.0072284470046532
  32    4.4405226705069e-14
  33    -4.1805170022922e-14
  34    2.1738237273793e-14
  35    -1.85450727784e-14
  36    1.8232091344537e-15
  37    -1.1193735499438e-13
  38     0.025801560064349
  39    6.0403930890415e-15
  40    -9.2267570426812e-15
  41    -0.088761502459527
  42    1.6416594187314e-13
  43    9.670204855214e-15
  44       0.1402537786829
  45    -1.1271567751415e-15
  46    5.5120068816784e-16
  47    1.8814981717938e-16
  48    1.1781841889311e-16
  49    1.0881687985142e-17
  50      0.87078408272491
  51    1.3160004631968e-15
  52    -1.0940563443416e-15
  53    -6.9707508655642e-16
  54    -2.4281870238725e-15
  55     -0.54271854298906
  56    -2.3518727147472e-17
  57    5.2020636840147e-16
  58    -0.0030772862800533
  59    1.6452220703623e-16
  60    4.5707780007045e-17
  61    -7.8296256051206e-16
  62     0.011918278514159
 Sym= A
 Ene=               2
 Spin= Alpha
 Occup=    1.00000
   1    -4.5857372722175e-16
   2    -5.2984955217374e-16
   3    1.8303870185444e-15
   4    3.9147303480576e-15
   5    -1.5591655901828e-15
   6    5.6823351388358e-16
   7    2.7044571424913e-16
   8    -9.9846878511753e-16
   9    -2.2688802585963e-15
  10    1.0583944613402e-15
  11    8.047584164125e-16
  12    2.7007646901264e-15
  13    -3.9363067107094e-17
  14    -3.5019088907968e-16
  15    7.1140003449402e-16
  16    -1.762089023947e-16
  17     0.090557778763012
  18    3.3493560790397e-16
  19    6.9114657844463e-18
  20    -1.2054056702935e-15
  21    -2.0242033631975e-16
  22      -0.4778237622093
  23    -5.9086285874741e-16
  24    5.9293553193347e-18
  25    -3.5470490041658e-16
  26    4.7409131589969e-16
  27    9.7977430187666e-17
  28    -3.8263951285968e-16
  29    -0.00020912826533436
  30    9.2593226763071e-17
  31    -8.7077849170189e-16
  32    -3.8619545026936e-16
  33    9.4330211441518e-17
  34    -1.8608023558173e-16
  35    -3.7748687617232e-15
  36    1.0077689521657e-15
  37    -8.4062458434344e-16
  38    1.3841680581955e-15
  39    1.0422477360624e-15
  40    -1.4558834475979e-15
  41    -7.8092190777028e-16
  42    -5.7912946803672e-16
  43    2.844269321549e-15
  44    -7.6006299364205e-16
  45    2.4985430344578e-16
  46    -4.540020376813e-16
  47    -6.8802947517597e-16
  48      0.81607448266631
  49    7.3613764369918e-17
  50    2.4448280390382e-16
  51    1.3270635186446e-15
  52    2.6124035960136e-16
  53     -0.62310488576294
  54    2.4037083145091e-17
  55    -3.6728828656697e-17
  56    -2.2523839951886e-16
  57    -8.6318426679638e-16
  58    -5.1745953599594e-17
  59    -1.4982027526968e-17
  60    0.0029286218232973
  61    7.0354210325813e-16
  62    5.5792713583421e-16
 Sym= A
 Ene=               3
 Spin= Alpha
 Occup=    1.00000
   1    -0.0061783774736786
   2     0.016016441318593
   3    -0.096139577179958
   4    -0.050337008873738
   5     0.025835750468429
   6      0.02840246570025
   7    -7.1643005170243e-15
   8    1.9312478668032e-14
   9    -0.096775654137238
  10    1.832712688892e-14
  11    1.4152572002773e-16
  12     0.012897576596056
  13    1.3087043293612e-16
  14    -1.8599484677054e-16
  15      0.10299656713692
  16    -3.8252624526715e-17
  17    -5.6334379192164e-16
  18    -0.018145727286026
  19    -4.0771278058137e-16
  20     -0.51731250281722
  21    -6.7301424958046e-17
  22    -2.0725801785605e-16
  23     0.050462445771788
  24    -2.7284011118128e-16
  25    2.0458700764018e-16
  26    -0.012576980207564
  27    7.4056032363872e-17
  28    -3.8946227943202e-17
  29     1.04633930094e-16
  30     0.015934650782347
  31    -2.5845390734594e-16
  32    -0.0065082569815443
  33     0.016681465088412
  34    -0.099078197034418
  35     0.017468815657312
  36    0.0061744878726776
  37    -0.012186775840423
  38    -9.4439006054697e-15
  39    -1.289179709394e-14
  40     0.053101904391921
  41    2.0364171596662e-14
  42    -1.3161126505108e-15
  43    -0.050203999739185
  44    -7.2065913440788e-16
  45    1.0419906288422e-16
  46      0.81358885636868
  47    -6.1220094621675e-16
  48    -4.9320864318316e-17
  49      0.03493478384017
  50    -4.8810282412738e-16
  51     -0.65814442200013
  52    -1.9313026698904e-16
  53    -8.8063392512816e-17
  54     0.037303391736415
  55    9.8879295036176e-16
  56    -7.9042029358842e-17
  57     0.011719434271563
  58    -7.1486553635967e-17
  59    4.7179803484114e-17
  60    -5.2346188852434e-17
  61    -0.010898279111798
  62    5.5198872365243e-16
 Sym= A
 Ene=               4
 Spin= Alpha
 Occup=    1.00000
   1    2.5699900486981e-14
   2    2.4407835614791e-14
   3    -5.9627555909235e-14
   4    7.8844454206778e-15
   5    4.4192651791745e-15
   6    2.5609733247852e-14
   7    -1.1691691386885e-13
   8     0.036687699908756
   9    5.8604175472246e-15
  10    -1.23249354897e-14
  11     -0.11960795753352
  12    -1.2181667273145e-15
  13    1.309393348148e-15
  14     0.078722985889558
  15    -4.7453416733305e-16
  16    -0.086393352663715
  17    2.9108125572283e-16
  18    -6.0735552853543e-16
  19    -4.8605362186444e-16
  20    1.295527087432e-15
  21      0.35433732790622
  22    -9.7272895591479e-16
  23    -5.4659591175687e-16
  24    6.4541076233893e-16
  25    -0.0045716712961051
  26    -1.8501820133218e-16
  27     1.44644312936e-16
  28    0.0059020022647169
  29    -4.0026986922546e-17
  30    -3.9951365519277e-16
  31    2.5756634527455e-16
  32    1.6955348790992e-14
  33    4.4625864781986e-14
  34    -6.2998516532185e-14
  35    1.3048216194002e-14
  36    2.7764139896354e-15
  37    2.7732464187072e-14
  38    9.7453026908023e-14
  39     0.025801560064431
  40    -9.4575020322927e-15
  41    -7.0788625135773e-15
  42    -0.088761502459192
  43    -4.0930238086834e-16
  44    -7.9385264114557e-16
  45      0.14025377868289
  46    1.0402340955546e-15
  47      0.87078408272492
  48    4.9491784342839e-16
  49    2.5798556597732e-17
  50    -2.1839253217899e-16
  51    -7.0717016362035e-16
  52     -0.54271854298906
  53    2.2543098212865e-16
  54    2.9194093520837e-17
  55    4.6607433787075e-16
  56    -0.0075377811785986
  57    -6.1570350430401e-16
  58    7.610939784942e-17
  59    0.0097312336573564
  60    -1.0614025784635e-16
  61    2.5137426884408e-16
  62    -2.7921492139025e-16
 Sym= A
 Ene=               5
 Spin= Alpha
 Occup=    1.00000
   1     0.011731191873149
   2    -0.030411211848725
   3      0.18254498552513
   4     0.095577376412154
   5    -0.049055621354169
   6    -0.053929170922243
   7    1.3764814122042e-14
   8    -3.6861326548662e-14
   9      0.18375273640531
  10    -3.6110608449217e-14
  11    -2.7514356621735e-16
  12    -0.024489268645619
  13    -5.2945763539018e-16
  14    9.7653772425829e-17
  15    -0.027265123448048
  16    -1.9989247951379e-16
  17    -2.6721391277262e-16
  18      0.13162199431767
  19    -5.5309949269633e-16
  20     0.094222339143341
  21    2.1994642973121e-16
  22    3.6666033294595e-16
  23     -0.60851677905957
  24    -1.6808267555543e-16
  25    4.3705038949546e-17
  26     0.023525739852402
  27    1.0279855082282e-16
  28    7.5306165836185e-17
  29    9.4802399260496e-17
  30    -0.030530736303998
  31    -3.5087921362055e-16
  32     0.012357550462969
  33    -0.031673925478184
  34      0.18812468885367
  35    -0.033168907070768
  36     -0.01172380649473
  37     0.023139635981793
  38    1.721623489117e-14
  39    2.264023255592e-14
  40     -0.10082722072341
  41    -3.6500060273291e-14
  42    2.9462561463581e-15
  43     0.095324825368621
  44    1.063959152492e-15
  45    -3.461831246183e-16
  46    -0.028145693080925
  47    3.9134943413562e-17
  48    2.3528018521203e-17
  49      0.80930924874163
  50    -7.6799411504423e-17
  51     0.091625233038948
  52    4.919196390242e-16
  53    1.0315847705544e-16
  54     -0.73941656071503
  55    -1.1002391232562e-15
  56    -1.5445982512302e-16
  57    -0.017283718502881
  58    -4.9903716383947e-17
  59    1.1627457517411e-16
  60    -2.7557503558166e-17
  61     0.024541727800475
  62    3.5175018376262e-16
 Sym= A
 Ene=               6
 Spin= Alpha
 Occup=    1.00000
   1    -0.029010303257522
   2     0.076210709828677
   3     -0.37849020734357
   4      0.53431094199764
   5    -0.015011105668838
   6     -0.24142054614963
   7    1.9958050741795e-13
   8    -5.4471192686227e-13
   9      0.61786139415634
  10    -5.1447564209501e-13
  11    -5.9270574166935e-15
  12      0.40616289640683
  13    2.9950399862455e-15
  14    2.767125049841e-15
  15    0.0099822265549268
  16    -8.4611588744343e-16
  17    6.234579484535e-16
  18    -0.017289723565798
  19    -1.1151476630923e-15
  20    -0.093373770992901
  21    2.8992424575361e-15
  22    -2.2742554014012e-15
  23      0.16172811545401
  24    -5.5287707354251e-16
  25    -8.1384398809026e-17
  26    -0.0056044601356099
  27    1.7815718118211e-16
  28    6.6610040769745e-17
  29    -4.5989765932389e-18
  30    0.0072353269232336
  31    -7.1950927013582e-16
  32     0.031036798950842
  33    -0.083112637030011
  34       0.3874418078529
  35     -0.80441372128604
  36       0.3848214327832
  37     -0.25857672055449
  38    2.544557572848e-13
  39    3.3249179875753e-13
  40       0.6781478980159
  41    -5.3136380045157e-13
  42    1.7442483016593e-14
  43      0.31481911949117
  44    3.1782209085363e-15
  45    -7.9638544241655e-16
  46    0.0074835083310709
  47    6.6820640049936e-16
  48    5.0961477803472e-16
  49    -0.012961816648282
  50    8.6610999064237e-16
  51     0.018793294188665
  52    -2.1983453222805e-15
  53    -2.3181493319422e-15
  54    -0.032550940376355
  55    7.4925116718241e-16
  56    -2.2576027812888e-17
  57    -0.0021328386505604
  58    1.9255676006032e-16
  59    3.4274056341291e-17
  60    6.2855059508946e-18
  61    0.0027534828579225
  62    -7.4084591399208e-16
 Sym= A
 Ene=               7
 Spin= Alpha
 Occup=    1.00000
   1    -0.053442805724311
   2      0.17602380580987
   3     -0.56762059165907
   4      0.39410723026705
   5    -0.0015622795689741
   6      0.13582895495131
   7     0.087620088240969
   8     0.097193543534534
   9     -0.37638653303365
  10     -0.25977931414727
  11     -0.16417083631471
  12      0.28799359350724
  13    0.0030197794957954
  14      0.00401271360206
  15    0.0047009086715456
  16    0.00061944682885983
  17     0.059876423393332
  18    -0.0046801936295774
  19    0.0011228963282316
  20    -0.036154737526252
  21    -0.0013450969056186
  22    0.00011802008621998
  23      0.06935056563499
  24    -0.0032068632406883
  25    -2.5691322494016e-05
  26    -0.0010132232161983
  27    1.113117045924e-05
  28    -4.6850213202221e-05
  29    0.0009637209453069
  30    0.0014471054141323
  31    -4.974031766137e-05
  32     0.058147336265443
  33     -0.19147091441258
  34      0.62613088417213
  35     -0.60217924990441
  36       0.2885705843508
  37      0.13882427044696
  38    -0.097183326706877
  39    -0.061730974238377
  40     -0.35983323244735
  41      0.26410955586535
  42       0.1644103195553
  43      0.24229386297012
  44    -0.0058169163182932
  45    -0.0060339943575326
  46    -0.003352857359349
  47    -0.00094056176235602
  48    -0.015121947798522
  49    0.0097749611076167
  50    -0.0014130854925372
  51     0.045756133726451
  52    0.0057058066390072
  53      0.01571124913437
  54    -0.075697778719425
  55    0.0081666291416405
  56    0.00013168711461309
  57    -0.0021227809459533
  58    5.8397545047067e-05
  59    -0.0002288751986084
  60    -0.00094924725532897
  61    0.0026562787130632
  62    -0.00012840247295023
 Sym= A
 Ene=               8
 Spin= Alpha
 Occup=    1.00000
   1     0.017573377899926
   2    -0.052455459032404
   3      0.21262802204296
   4     -0.80923161985477
   5    -0.053284440123137
   6     0.038863270732966
   7      0.18661316660215
   8     0.091014211834015
   9      0.27680322928935
  10     -0.64649241404843
  11    -0.045282017225203
  12     -0.88809456677837
  13      0.01125014747928
  14    -3.9270759727535e-07
  15      0.11932859520096
  16    -0.00047796791750884
  17      0.11362043591187
  18    -0.097872686206151
  19    0.0040526575873795
  20     0.071031609507701
  21    0.0043351869418264
  22    -0.017984244172792
  23     -0.14262249826687
  24    -0.016664512044557
  25    -0.00038971030764186
  26    0.0034648920535616
  27    6.4803666082441e-05
  28    -0.00017092969282783
  29    0.0011793801560622
  30    -0.0029500803340399
  31    -0.0006274033856812
  32    -0.018955137619238
  33     0.062673107418469
  34     -0.12550289208421
  35      0.89911016695132
  36    -0.051274997717226
  37    -0.043867161641823
  38     -0.23418998057913
  39    -0.025899503126499
  40      0.11028335195792
  41      0.64313359057674
  42     0.061563909299536
  43     -0.66954597710625
  44    -0.016949801435765
  45    -0.00082724186010148
  46     0.011882378342089
  47    -0.0010273446364804
  48    -0.025803547064862
  49    -0.034827346161046
  50    -0.0022503333935393
  51     -0.15089760246417
  52     0.006725448975226
  53      0.04773758809775
  54     0.081928930139423
  55     0.011742558135298
  56    0.00012261626105733
  57    0.0086292967179767
  58    9.8203048721108e-05
  59    -0.00028002837997418
  60    -0.00042085864366769
  61    -0.0070200144669179
  62    -9.2363653791279e-05
 Sym= A
 Ene=               9
 Spin= Alpha
 Occup=    1.00000
   1    0.0079420122028211
   2    -0.037274044518934
   3     0.031128842876248
   4       1.3337926986586
   5      0.11044716508768
   6     -0.19130570400593
   7      0.21337916012948
   8     -0.28567092881162
   9      -0.2575905198621
  10     -0.28956713123846
  11      0.28056722952376
  12       1.5826109031153
  13    0.0068864290493289
  14    -0.0042353714572048
  15     -0.24833103038443
  16    0.0002615544174954
  17     -0.28200577854708
  18      0.20435779010666
  19    -0.0020168246560901
  20     -0.11579196741252
  21    -0.0072636599719124
  22      0.03674684658526
  23      0.23516272571146
  24     0.019067127242173
  25    0.00081686765524404
  26    -0.0062653029796911
  27    -0.00010450569105716
  28    0.00039212092437786
  29    -0.0032086022880088
  30    0.0048538542117665
  31    0.0011813623598254
  32    -0.0089796069092274
  33     0.029043016068281
  34     -0.25773100034525
  35      -1.3468343007941
  36     -0.13223575074294
  37    -0.024280792445621
  38     -0.11437273144565
  39      0.12329513837955
  40     0.069943559106669
  41      0.31379548653326
  42     -0.31472457622962
  43       1.1724529482253
  44    -0.016926859454617
  45    0.0082869019208532
  46    -0.021586205353978
  47    0.0031694001703607
  48     0.065297363686804
  49     0.063312337734686
  50    -0.0043100566987386
  51      0.27151661884743
  52    -0.020197476061965
  53     -0.11071767046653
  54     -0.10560217215095
  55     0.029016941182136
  56    -0.00039320612867925
  57    -0.015933144213309
  58    0.00022728279909306
  59    0.00080542028138555
  60    0.0016427362130087
  61     0.012197569436365
  62    -0.0015506233177703
 Sym= A
 Ene=              10
 Spin= Alpha
 Occup=    1.00000
   1     0.015150229710212
   2    -0.055315088317868
   3      0.13498358721255
   4      0.56657123706127
   5     0.054134632792139
   6     -0.12186759833926
   7      0.05875551870457
   8      0.15125806037909
   9    -0.046034991879618
  10    -0.013154968980284
  11     -0.67972600696365
  12      0.71018371174356
  13     0.001421199041187
  14     0.012185286611801
  15     -0.12196793356985
  16    0.0033536651412388
  17     -0.15001974305675
  18      0.10054179189391
  19    -0.0015077708720471
  20    -0.048776693304862
  21    -0.011501474603152
  22     0.017876484712996
  23     0.099921407435159
  24     0.010673655600585
  25    0.00044603400477114
  26    -0.002838290264971
  27    -5.4755791219222e-05
  28    0.00014582649325908
  29    -0.001766517405185
  30    0.0020591082298123
  31    0.00059179859890392
  32    -0.016648778119966
  33     0.054566034487745
  34     -0.25772482150389
  35     -0.52900259329345
  36     -0.12533362469091
  37    -0.041132915380298
  38    -0.0082524227762573
  39     -0.24079203265781
  40      0.11003052506278
  41     0.023207918353549
  42      0.67277156162102
  43      0.52002010825245
  44    -0.0047617401411738
  45    -0.020968818493232
  46    -0.0098080659061004
  47    -0.0029523815927476
  48     0.035002006881969
  49     0.028779503928416
  50    -0.0013982699923102
  51      0.12261192435344
  52     0.016797740577018
  53     -0.05725311662477
  54    -0.035465546792082
  55     0.010021370794236
  56    0.00032414994831981
  57      -0.0073138076461
  58    7.9343830992518e-05
  59    -0.000260977947424
  60     0.001000643197949
  61    0.0053813889443661
  62    -0.00065450505528089
 Sym= A
 Ene=              11
 Spin= Alpha
 Occup=    1.00000
   1     0.012729910961947
   2    -0.063555456180005
   3       0.1391422439296
   4      0.40761172590774
   5      0.18904684989835
   6     -0.25559724381256
   7    -0.049980269612594
   8       0.4461728070888
   9     -0.10843038520838
  10     0.023564631428974
  11    -0.020844959970811
  12       0.5407959066607
  13    -0.022904188300828
  14     0.017170991814423
  15     -0.14486024592885
  16    0.00051527253558347
  17      0.71355501312606
  18      0.16195464594128
  19    -0.00059899505640079
  20    -0.0036062070149894
  21    -0.0027594600713078
  22     0.024595315825655
  23      0.12764549493031
  24    0.0035889325462345
  25    1.4011607891817e-05
  26    -0.0063031116993692
  27    1.7174862489679e-05
  28    -0.00030662166044858
  29     0.012311771003617
  30    0.0081905509033025
  31    0.00031784209011365
  32    -0.005758115043085
  33     0.010873252038298
  34    -0.094005238531743
  35     -0.42200966156635
  36     -0.19182884617891
  37    -0.029455171936243
  38    -0.016384801522419
  39    -0.012912425227198
  40     0.082006893939927
  41    0.0093332261050708
  42    -0.022479940722851
  43      0.50413514018546
  44     0.028492178018648
  45    -0.015197678162511
  46    0.0044878929272239
  47    0.00037490575340919
  48      -0.1838927466868
  49     0.067241453083516
  50    -0.0012594166501014
  51      0.17558836597666
  52    -0.0011927597629035
  53       0.1644057944114
  54    -0.024667832199426
  55    0.0064536134374265
  56    0.00027877558353669
  57    -0.0084566518240866
  58    -5.0295110211477e-05
  59    -0.0010486665733068
  60    -0.013070315398035
  61    0.0044628641742599
  62    0.0012294610771733
