[Molden Format]
made by pyscf v[2.1.1]
[Atoms] (AU)
Cr   1   24    -1.88972612456506     0.00000000000000     0.00000000000000
Cr   2   24     1.88972612456506     0.00000000000000     0.00000000000000
[GTO]
1 0
 s    6 1.00
          51528.086349  0.0017695545768669
          7737.2103487   0.013556436258096
           1760.374847   0.067162645785071
          496.87706544    0.23295905918518
          161.46520598    0.47040576982722
          55.466352268    0.35733072606876
 s    3 1.00
          107.54732999   -0.10605255446629
          12.408671897    0.62543981484169
          5.0423628826    0.44878820793655
 s    3 1.00
          8.5461640165   -0.21819012081133
          1.3900441221    0.70422525667731
         0.56066602876    0.42488555412558
 s    1 1.00
        0.071483705972                   1
 s    1 1.00
        0.028250687604                   1
 p    5 1.00
          640.48536096  0.0093555063746755
          150.69711194   0.068993338492216
          47.503755296     0.2634118959318
          16.934120165    0.51034501651775
           6.240968059    0.33195512953954
 p    3 1.00
          3.0885463206    0.32917682676976
          1.1791047769    0.55491385190365
         0.43369774432    0.23818412855984
 p    1 1.00
              0.120675                   1
 d    4 1.00
          27.559479426   0.036950140313562
          7.4687020327    0.18821519783039
          2.4345903574    0.44641244239929
         0.78244754808     0.5681617303244
 d    1 1.00
         0.21995774311                   1
 f    1 1.00
                 1.147                   1

2 0
 s    6 1.00
          51528.086349  0.0017695545768669
          7737.2103487   0.013556436258096
           1760.374847   0.067162645785071
          496.87706544    0.23295905918518
          161.46520598    0.47040576982722
          55.466352268    0.35733072606876
 s    3 1.00
          107.54732999   -0.10605255446629
          12.408671897    0.62543981484169
          5.0423628826    0.44878820793655
 s    3 1.00
          8.5461640165   -0.21819012081133
          1.3900441221    0.70422525667731
         0.56066602876    0.42488555412558
 s    1 1.00
        0.071483705972                   1
 s    1 1.00
        0.028250687604                   1
 p    5 1.00
          640.48536096  0.0093555063746755
          150.69711194   0.068993338492216
          47.503755296     0.2634118959318
          16.934120165    0.51034501651775
           6.240968059    0.33195512953954
 p    3 1.00
          3.0885463206    0.32917682676976
          1.1791047769    0.55491385190365
         0.43369774432    0.23818412855984
 p    1 1.00
              0.120675                   1
 d    4 1.00
          27.559479426   0.036950140313562
          7.4687020327    0.18821519783039
          2.4345903574    0.44641244239929
         0.78244754808     0.5681617303244
 d    1 1.00
         0.21995774311                   1
 f    1 1.00
                 1.147                   1

[5d]
[7f]
[9g]

[MO]
 Sym= A1u
 Ene=               0
 Spin= Alpha
 Occup=    1.00000
   1     -0.23434132731951
   2      0.73871950976931
   3    0.0093117660291657
   4    0.0018422538924201
   5    0.00036038222505892
   6    0.0029336900459799
   7     5.63414389738e-26
   8    6.5141004250252e-19
   9    5.6718969675697e-05
  10    -1.5756123125201e-25
  11    1.2594154666175e-20
  12    0.0023688349133532
  13    1.5935361559306e-26
  14    5.2598699823204e-19
  15    1.0319763182351e-05
  16    -7.9378004015006e-21
  17    -8.2381082973517e-43
  18    -1.7874354153911e-05
  19    -5.0924396121441e-27
  20    -0.00050845468097106
  21    3.9109572990056e-19
  22    3.3674656317834e-42
  23    0.0008806693407881
  24    2.0816205319054e-26
  25    1.2001970484174e-27
  26    -6.150971617861e-05
  27    7.8595858589275e-29
  28    -1.549447726896e-27
  29    -9.2990571864917e-44
  30    7.9408702129901e-05
  31    -3.0440045139714e-28
  32      0.23434132731951
  33     -0.73871950976931
  34    -0.0093117660291657
  35    -0.0018422538924201
  36    -0.00036038222505892
  37    0.0029336900459799
  38    -4.3017693760757e-26
  39    6.5141005195719e-19
  40    5.6718969675702e-05
  41    1.2039431741991e-25
  42    1.2594127766576e-20
  43    0.0023688349133532
  44    -1.5716487524762e-26
  45    5.2598702673124e-19
  46    -1.0319763182364e-05
  47    7.9378151904977e-21
  48    -8.1565642044177e-43
  49    1.7874354153934e-05
  50    -5.0420326067972e-27
  51    0.00050845468097105
  52    -3.9109577370177e-19
  53    3.3803579995915e-42
  54    -0.00088066934078809
  55    2.0895900319594e-26
  56    1.6567084508851e-27
  57    -6.150971617861e-05
  58    -6.508882311492e-29
  59    -2.1388014132663e-27
  60    7.7009743160904e-44
  61    7.9408702129901e-05
  62    2.5208792794833e-28
 Sym= E1ux
 Ene=               1
 Spin= Alpha
 Occup=    1.00000
   1    -7.363237296891e-17
   2    2.7149624277767e-16
   3    -7.2038537693709e-16
   4    2.3582588440083e-16
   5    1.0973090421146e-16
   6    8.9927541503343e-15
   7     -0.26989265062795
   8    3.624551478015e-15
   9    -2.5153146543635e-14
  10      0.75287216390079
  11    -1.0120559095807e-14
  12     3.40258708586e-16
  13    -0.0044336252601711
  14    7.8672441588625e-17
  15    -3.1909733666779e-16
  16    2.1274909317566e-16
  17    1.6517991775674e-19
  18    5.5269279966853e-16
  19    0.0010210702821005
  20    9.5838602324514e-17
  21    -1.5945063161688e-16
  22     2.61154447565e-19
  23    -1.6599732855245e-16
  24    0.0016143430089346
  25    -9.850159296583e-18
  26    1.139499352525e-16
  27    -0.00027360547263626
  28    1.2716500971052e-17
  29    3.2371590338843e-19
  30    -1.4710873384478e-16
  31    0.0010596694389514
  32    7.615675598594e-17
  33    -2.7776454264498e-16
  34    7.6039692564652e-16
  35    -2.5233541574098e-16
  36    -9.0994617639216e-17
  37     8.99241204915e-15
  38     -0.26989265062796
  39    -3.5914837401024e-15
  40    -2.5155424328279e-14
  41      0.75287216390083
  42    1.0028338415877e-14
  43    2.6361621597312e-16
  44    -0.0044336252601721
  45    -7.8222028382662e-17
  46    1.6383801371494e-16
  47    2.1298930623021e-16
  48    -1.6517991775665e-19
  49    -2.8377576396545e-16
  50    -0.0010210702820999
  51    1.1307846413247e-17
  52    -1.5848906396658e-16
  53    -2.6115444756495e-19
  54    -1.958576451193e-17
  55    -0.0016143430089343
  56    1.3774056121537e-19
  57    -5.0897298142934e-17
  58    -0.00027360547263625
  59    -1.778222998948e-19
  60    3.2371590338843e-19
  61    6.5708129358179e-17
  62    0.0010596694389514
 Sym= E1gy
 Ene=               2
 Spin= Alpha
 Occup=    1.00000
   1    -1.3582779280727e-17
   2    4.9220534232148e-17
   3    -1.3737952016122e-16
   4    6.6715237279989e-17
   5    2.4411423703715e-17
   6    1.4585686282282e-15
   7    0.0073512306962717
   8      0.27170029516964
   9    -4.0821173093722e-15
  10    -0.020531955951525
  11     -0.75885776449221
  12    1.0242647380011e-16
  13    0.00047453741323556
  14     0.017538825888098
  15    -2.077997032761e-16
  16    0.0097210263640458
  17    4.2548442957476e-20
  18    3.6455275200888e-16
  19    0.00026301593585673
  20    4.8232561582504e-17
  21    0.0062065774397812
  22    2.7165876962802e-20
  23    -8.0583149672832e-17
  24    0.00016792761511581
  25    -0.00018301778420737
  26    2.1306912040271e-16
  27    -2.0215645332369e-06
  28    0.00023627494343164
  29    2.3918110366337e-21
  30    -2.7507105163692e-16
  31    7.8294857705099e-06
  32    1.1467981508538e-17
  33    -4.2637938020874e-17
  34    1.1026677760029e-16
  35    -1.4924946074375e-17
  36    -9.1579485570977e-18
  37    1.549273791392e-15
  38    -0.0073512306962641
  39     -0.27170029516964
  40    -4.3314971026727e-15
  41     0.020531955951503
  42      0.75885776449221
  43    -1.4343231528012e-18
  44    -0.00047453741323543
  45    -0.017538825888098
  46    -1.2703350869643e-16
  47    0.0097210263640458
  48    4.2548442957481e-20
  49    2.246615994629e-16
  50    0.00026301593585676
  51    3.4095622809071e-17
  52    0.0062065774397812
  53    2.7165876962809e-20
  54    -5.6097253453755e-17
  55    0.00016792761511586
  56    0.00018301778420746
  57    -2.025241860683e-16
  58    2.0215645332446e-06
  59    -0.00023627494343176
  60    -2.3918110366428e-21
  61    2.6145759994891e-16
  62    -7.8294857705398e-06
 Sym= E1gx
 Ene=               3
 Spin= Alpha
 Occup=    1.00000
   1    -1.9733566330881e-16
   2    7.2244926127542e-16
   3    -1.9567948494959e-15
   4    4.1129417319889e-16
   5    4.1621654792604e-16
   6    2.3573802296238e-14
   7     -0.27170029516965
   8    0.0073512306962678
   9    -6.5965550008812e-14
  10      0.75885776449224
  11    -0.020531955951514
  12    1.0625211209641e-15
  13    -0.017538825888102
  14    0.00047453741323556
  15    -6.0545529422058e-16
  16    0.00026301593585665
  17    -1.5725835561691e-18
  18    1.0488046865086e-15
  19    -0.0097210263640459
  20    8.4595319006017e-17
  21    0.00016792761511607
  22    -1.0040464099542e-18
  23    -1.4644335514264e-16
  24    -0.0062065774397817
  25    -4.9518015885543e-06
  26    -1.0703237344199e-17
  27    7.4716697527239e-05
  28    6.3927483620647e-06
  29    -8.8400948289457e-20
  30    1.3817819994863e-17
  31    -0.00028937652520661
  32    1.9471466836873e-16
  33    -7.1515755702214e-16
  34    1.9189282869335e-15
  35    -8.6639400687462e-16
  36    -1.0915206821187e-16
  37    2.349964302408e-14
  38      0.27170029516963
  39    -0.0073512306962678
  40    -6.5709505635111e-14
  41     -0.75885776449219
  42     0.020531955951514
  43    5.1802992461823e-16
  44     0.017538825888101
  45    -0.00047453741323556
  46     6.58554754802e-16
  47    0.00026301593585665
  48    -1.5725835561691e-18
  49    -1.1405249396761e-15
  50    -0.009721026364046
  51    -1.3665111664733e-16
  52    0.00016792761511607
  53    -1.0040464099543e-18
  54    2.3676671240248e-16
  55    -0.0062065774397817
  56    4.9518015885234e-06
  57    1.7573395390012e-16
  58    -7.4716697527255e-05
  59    -6.3927483620248e-06
  60    8.8400948289476e-20
  61    -2.2687155893944e-16
  62    0.00028937652520668
 Sym= A1u
 Ene=               4
 Spin= Alpha
 Occup=    1.00000
   1    -0.0022899698091999
   2    0.0083970754400931
   3    -0.022638136622477
   4    0.0074629891153869
   5    0.0030686832084316
   6      0.27495645301273
   7    3.1602005886739e-14
   8    -2.0313740557104e-15
   9     -0.76911528365399
  10    -8.8233153671339e-14
  11    5.6720782721905e-15
  12    0.0092320140652908
  13    1.5583434902176e-15
  14    -5.951730381654e-17
  15    -0.0073830950185771
  16    -1.091820575111e-16
  17    1.335564213596e-31
  18     0.012787895689284
  19    8.2558760584211e-16
  20     0.001292302587478
  21    6.560438831927e-17
  22    5.9733190981006e-32
  23    -0.0022383337402647
  24    3.6924456068298e-16
  25    -4.9063454724897e-18
  26    0.00096394602420961
  27    1.9732272326914e-18
  28    6.3340647685643e-18
  29    -2.3346208322029e-33
  30    -0.0012444489661356
  31    -7.6422762104967e-18
  32    0.0022899698091999
  33    -0.008397075440093
  34     0.022638136622477
  35    -0.0074629891153868
  36    -0.0030686832084316
  37      0.27495645301273
  38    -1.4353054375309e-14
  39    2.1535029826743e-15
  40     -0.76911528365399
  41    4.0116780664459e-14
  42    -6.0136655150902e-15
  43    0.0092320140652906
  44    -1.2749886565287e-15
  45    6.3474706328779e-17
  46    0.0073830950185769
  47    -1.2036274449243e-16
  48    1.4411313857816e-31
  49    -0.012787895689284
  50    8.9084463208839e-16
  51    -0.0012923025874782
  52    6.8768036521053e-17
  53    7.642368030171e-32
  54    0.0022383337402651
  55    4.7241789355862e-16
  56    -1.0167587745648e-17
  57    0.00096394602420945
  58    1.5513012276921e-17
  59    1.3126299336665e-17
  60    -1.835419714055e-32
  61    -0.0012444489661353
  62    -6.0081638198027e-17
 Sym= A1g
 Ene=               5
 Spin= Alpha
 Occup=    1.00000
   1    -0.011865119635122
   2     0.033424972562006
   3     -0.16854566044258
   4      0.17508795929281
   5    -0.033893411991715
   6     0.027962941036835
   7    1.4994128329682e-17
   8    -2.242283247682e-17
   9    -0.092744424051182
  10    -4.3474092725625e-17
  11    6.0217653846228e-17
  12    0.0021517948408651
  13    9.1872814087557e-17
  14    -5.2155763124943e-17
  15     -0.27498106394389
  16    2.3846881045274e-16
  17    -7.9327313710385e-33
  18      0.47628117387016
  19    -4.9036689016775e-17
  20     -0.11686947699621
  21    1.1488339723537e-17
  22    2.3068218696839e-32
  23      0.20242387201144
  24    1.4259767707976e-16
  25    2.4787475868525e-17
  26    -0.0063044293339518
  27    6.1835508010914e-19
  28    -3.2000493744439e-17
  29    -7.3160588289282e-34
  30    0.0081389832725789
  31    -2.3948789273055e-18
  32    -0.011865119635122
  33     0.033424972562006
  34     -0.16854566044258
  35      0.17508795929281
  36    -0.033893411991715
  37    -0.027962941036835
  38    -6.9148237967822e-18
  39    2.234217336601e-17
  40     0.092744424051183
  41    2.0936674710184e-17
  42    -6.0110787083145e-17
  43    -0.0021517948408651
  44    -9.1740092397736e-17
  45    5.263984457644e-17
  46     -0.27498106394389
  47    2.3786642122139e-16
  48    -7.9277866685608e-33
  49      0.47628117387016
  50    -4.9006123020482e-17
  51     -0.11686947699621
  52    7.492910353489e-18
  53    2.3076036421061e-32
  54      0.20242387201144
  55    1.4264600284469e-16
  56    2.6442875604639e-17
  57    0.0063044293339518
  58    -6.1016463131347e-19
  59    -3.4137605614201e-17
  60    7.2191536572041e-34
  61    -0.0081389832725789
  62    2.3631574555219e-18
 Sym= A1g
 Ene=               6
 Spin= Alpha
 Occup=    1.00000
   1    9.7781051258243e-05
   2    0.00011063903903049
   3    0.0029990189938772
   4     -0.59462644095764
   5      0.39994547910019
   6     0.091773766358195
   7    -4.5416317703736e-17
   8    4.1348757027613e-17
   9     -0.31300216366793
  10    1.2672346653313e-16
  11    -1.2773885856939e-16
  12      0.73901515833127
  13    5.0534058181105e-18
  14    1.4658576667255e-16
  15     -0.04435519762223
  16    4.5099451067465e-17
  17    -1.0323125352411e-33
  18     0.076825455861461
  19    -6.3813063106546e-18
  20     0.033841541057642
  21    -5.5027176510525e-17
  22    1.8995435165057e-33
  23    -0.058615268518264
  24    1.1742150381241e-17
  25    -2.8790678901599e-19
  26    0.00046632985725527
  27    7.7050460767148e-20
  28    3.7168606637299e-19
  29    -9.1162136756276e-35
  30    -0.00060202925699632
  31    -2.9841515136877e-19
  32    9.7781051258243e-05
  33    0.00011063903903049
  34    0.0029990189938772
  35     -0.59462644095764
  36      0.39994547910019
  37    -0.091773766358195
  38    5.8365454988368e-17
  39    -4.1348880741634e-17
  40      0.31300216366793
  41    -1.6284540236742e-16
  42    1.2773902248041e-16
  43     -0.73901515833127
  44    -4.840685604985e-18
  45    -1.4658502419396e-16
  46     -0.04435519762223
  47    4.5098527129757e-17
  48    -1.0243873937942e-33
  49     0.076825455861461
  50    -6.3323165392421e-18
  51     0.033841541057642
  52    -5.5033304654362e-17
  53    1.9120734049119e-33
  54    -0.058615268518264
  55    1.1819604692052e-17
  56    3.6648331573164e-19
  57    -0.00046632985725527
  58    -6.3923186575909e-20
  59    -4.7312792616384e-19
  60    7.563062204314e-35
  61    0.00060202925699632
  62     2.47573437045e-19
 Sym= A1g
 Ene=               7
 Spin= Alpha
 Occup=    1.00000
   1     0.014554016418981
   2    -0.037378281654691
   3      0.22513899861457
   4      0.21157407768823
   5     -0.17164856963261
   6    -0.066006883616398
   7    -1.9930340785378e-16
   8    -1.3877847809668e-16
   9      0.23965413248387
  10    7.5276358160356e-16
  11    5.5878167536686e-16
  12     -0.21887473451317
  13    -1.1118393805427e-14
  14    -9.0513501148905e-15
  15     -0.25995957438039
  16    5.0745821687452e-15
  17    9.7375279310894e-31
  18      0.45026319074082
  19    6.0193154994794e-15
  20      0.40232095050259
  21    -1.4368630842703e-14
  22    -2.8087319360908e-30
  23      -0.6968403272199
  24    -1.7362357054521e-14
  25    -1.3658048428347e-16
  26     -0.01550283276778
  27    -7.5260057290567e-17
  28    1.7632464701561e-16
  29    8.9043823576109e-32
  30     0.020014071042884
  31    2.9148094852098e-16
  32     0.014554016418981
  33    -0.037378281654691
  34      0.22513899861457
  35      0.21157407768823
  36     -0.17164856963261
  37     0.066006883616398
  38    1.1776120850908e-16
  39    1.3873871961785e-16
  40     -0.23965413248387
  41    -5.2529961796085e-16
  42    -5.5872899861534e-16
  43      0.21887473451317
  44    1.1117054281902e-14
  45    9.0515887282592e-15
  46     -0.25995957438039
  47    5.0742852391205e-15
  48    9.7370288758631e-31
  49      0.45026319074082
  50    6.0190070052826e-15
  51      0.40232095050259
  52    -1.437060026925e-14
  53    -2.808810838232e-30
  54      -0.6968403272199
  55    -1.7362844793179e-14
  56    1.6183294273876e-16
  57      0.01550283276778
  58    7.5177393342736e-17
  59    -2.0892543069832e-16
  60    -8.8946019850577e-32
  61    -0.020014071042884
  62    -2.911607924277e-16
 Sym= E1gy
 Ene=               8
 Spin= Alpha
 Occup=    1.00000
   1    -1.5321794963441e-16
   2    3.9295329353443e-16
   3    -2.3728897239503e-15
   4    -2.0760494538811e-15
   5    1.7067251865387e-15
   6    6.4375028772649e-16
   7    0.00021821520033882
   8    -0.013072503420781
   9    -2.3693071630905e-15
  10    -0.00085490651646216
  11     0.051214435765918
  12    2.2762132982504e-15
  13     0.013905126133557
  14     -0.83300708963018
  15    2.911564629929e-15
  16      0.45090739799737
  17    -1.217629622312e-18
  18    -4.8280722962002e-15
  19    -0.0075268557996198
  20    -4.7516653584387e-15
  21      -1.3008178112941
  22    3.5127263542305e-18
  23    7.6101470906919e-15
  24     0.021714143814614
  25     -0.01380285209496
  26    2.600865531349e-16
  27    9.4063133929687e-05
  28     0.017819405431315
  29    -1.1129065541783e-19
  30    -3.3577029628798e-16
  31    -0.00036430495120175
  32    -1.5372098936272e-16
  33    3.9479788665637e-16
  34    -2.3778626638869e-15
  35    -2.0744100523158e-15
  36    1.7073992869531e-15
  37    -7.041502203143e-16
  38    -0.0002182152003389
  39     0.013072503420781
  40    2.5382594127141e-15
  41    0.00085490651646237
  42    -0.051214435765918
  43    -2.2782413031256e-15
  44    -0.013905126133557
  45      0.83300708963018
  46    2.9099427787721e-15
  47      0.45090739799737
  48    -1.217629622312e-18
  49    -4.8252631675942e-15
  50    -0.0075268557996198
  51    -4.7513814771611e-15
  52      -1.3008178112941
  53    3.5127263542305e-18
  54    7.6096553938957e-15
  55     0.021714143814614
  56      0.01380285209496
  57    -2.6029830402942e-16
  58    -9.4063133929687e-05
  59    -0.017819405431315
  60    1.1129065541783e-19
  61    3.3604366551733e-16
  62    0.00036430495120176
 Sym= E1gx
 Ene=               9
 Spin= Alpha
 Occup=    1.00000
   1    -1.9835262022275e-16
   2    5.0901064051549e-16
   3    -3.0704360985153e-15
   4    -2.9798416379275e-15
   5    2.3913897769425e-15
   6    9.2845903171005e-16
   7    -0.013072503420781
   8    -0.00021821520033884
   9    -3.3551507045664e-15
  10     0.051214435765917
  11    0.0008549065164622
  12    3.0520455816832e-15
  13     -0.83300708963018
  14    -0.013905126133557
  15    3.6462936983637e-15
  16    0.0075268557996201
  17    7.2943898400305e-17
  18    -6.3119785935548e-15
  19      0.45090739799736
  20    -5.5303749894599e-15
  21    -0.021714143814614
  22    -2.1043505315232e-16
  23    9.5685413561137e-15
  24      -1.3008178112941
  25    -0.0002304066817349
  26    2.0268707575871e-16
  27    -0.0056349907712932
  28    0.00029745374707139
  29    6.667030854824e-18
  30    -2.6166788963499e-16
  31     0.021824225413251
  32    -1.9801753310518e-16
  33    5.077819117342e-16
  34    -3.0671235010893e-15
  35    -2.9809336835735e-15
  36    2.3909407421007e-15
  37    -8.8822515320551e-16
  38     0.013072503420781
  39    0.00021821520033884
  40    3.2426074616655e-15
  41    -0.051214435765917
  42    -0.0008549065164622
  43    -3.0506946778286e-15
  44      0.83300708963018
  45     0.013905126133557
  46    3.6473740532516e-15
  47    0.0075268557996201
  48    7.2943898400305e-17
  49    -6.3138498231108e-15
  50      0.45090739799736
  51    -5.5305640897509e-15
  52    -0.021714143814614
  53    -2.1043505315232e-16
  54    9.5688688874256e-15
  55      -1.3008178112941
  56    0.00023040668173472
  57    -2.0254602328731e-16
  58    0.0056349907712932
  59    -0.00029745374707116
  60    -6.667030854824e-18
  61    2.6148579167744e-16
  62    -0.021824225413251
 Sym= A1g
 Ene=              10
 Spin= Alpha
 Occup=    1.00000
   1    0.0016901153629421
   2    -0.005540393288116
   3     0.019902000748663
   4    0.0083181242978632
   5    -0.009034133609637
   6    -0.010996112702841
   7    3.3728681020273e-17
   8    1.3679065454764e-16
   9     0.033924888601164
  10    -8.7083866933451e-17
  11    -3.8402282616596e-16
  12    -0.019135379016163
  13    -4.0981609577701e-16
  14    5.2990016657776e-16
  15    -0.026373614607508
  16    -3.1192244121059e-16
  17    3.699097097442e-32
  18     0.045680440479445
  19    2.2866206546759e-16
  20     0.012892779176985
  21    6.1968138842772e-16
  22    -1.0449055199417e-31
  23    -0.022330948585304
  24    -6.4591506552659e-16
  25    -3.0703693743403e-15
  26      0.42379760601962
  27    -2.8988725579734e-18
  28    3.9638298178417e-15
  29    3.4297967064418e-33
  30     -0.54712035675885
  31    1.1227285139809e-17
  32    0.0016901153629421
  33    -0.005540393288116
  34     0.019902000748663
  35    0.0083181242978632
  36    -0.009034133609637
  37     0.010996112702841
  38    -1.5511024108005e-16
  39    -1.2709373175429e-16
  40    -0.033924888601164
  41    4.2568070373963e-16
  42    3.7117519196353e-16
  43     0.019135379016163
  44    4.0782211650582e-16
  45    -5.8809694575992e-16
  46    -0.026373614607508
  47    -2.3950257680493e-16
  48    3.6916682934115e-32
  49     0.045680440479445
  50    2.2820284916998e-16
  51     0.012892779176985
  52    1.1000160925718e-15
  53    -1.0460800363351e-31
  54    -0.022330948585304
  55    -6.466411003869e-16
  56    -3.0885971443853e-15
  57     -0.42379760601962
  58    2.7758211928019e-18
  59    3.9873617677826e-15
  60    -3.2842086688348e-33
  61      0.54712035675885
  62    -1.0750709251772e-17
 Sym= E1uy
 Ene=              11
 Spin= Alpha
 Occup=    1.00000
   1    -1.0916491811201e-17
   2    3.6910278809942e-17
   3    -1.209571507361e-16
   4    -4.6393249205002e-17
   5    5.1675286878485e-17
   6    8.3706575226283e-17
   7    -3.7307343381629e-17
   8    0.00067506271895652
   9    -2.5205916962904e-16
  10    9.6875870085366e-17
  11    -0.00089440321034614
  12    1.2165072908632e-16
  13    4.1282931287125e-16
  14    -0.0040514374329304
  15    1.739560795404e-16
  16    -0.0050415942886189
  17    -3.6563427726456e-32
  18    -3.0370362662086e-16
  19    -2.2593209954756e-16
  20    -6.6524477265771e-17
  21     -0.03343906704207
  22    1.0435742922669e-31
  23    9.9286484844639e-17
  24    6.456697276085e-16
  25     -0.42876371944954
  26    -3.1022678419261e-15
  27    -7.9192169332807e-18
  28      0.55353158162867
  29    8.184747157021e-33
  30    4.0050105624182e-15
  31     3.06709952976e-17
  32    -1.0468380153336e-17
  33    3.541068558967e-17
  34    -1.1929680844214e-16
  35    -4.694645393802e-17
  36    5.1448289223505e-17
  37    -6.3658246255502e-17
  38    4.5373394833476e-18
  39    0.0006750627189566
  40    1.9561256404706e-16
  41    -5.3420601040735e-18
  42    -0.00089440321034637
  43    -1.1943057285155e-16
  44    -4.1386515376864e-16
  45    -0.0040514374329298
  46    1.7837909865488e-16
  47    0.0050415942886192
  48    -3.6455479780901e-32
  49    -3.0655880330719e-16
  50    -2.2543897206786e-16
  51    -4.0898454481222e-17
  52     0.033439067042069
  53    1.0517497905703e-31
  54    8.6775490839156e-17
  55    6.4956832639351e-16
  56     -0.42876371944954
  57    3.1023389392243e-15
  58    -1.3550556980866e-17
  59      0.55353158162867
  60    1.4847458663582e-32
  61    -4.0051023486354e-15
  62    5.248108151873e-17
