[Molden Format]
made by pyscf v[2.1.1]
[Atoms] (AU)
Cr   1   24    -1.88972612456506     0.00000000000000     0.00000000000000
Cr   2   24     0.65195551297495     0.00000000000000     0.00000000000000
[GTO]
1 0
 s    6 1.00
          51528.086349  0.0017695545768669
          7737.2103487   0.013556436258096
           1760.374847   0.067162645785071
          496.87706544    0.23295905918518
          161.46520598    0.47040576982722
          55.466352268    0.35733072606876
 s    3 1.00
          107.54732999   -0.10605255446629
          12.408671897    0.62543981484169
          5.0423628826    0.44878820793655
 s    3 1.00
          8.5461640165   -0.21819012081133
          1.3900441221    0.70422525667731
         0.56066602876    0.42488555412558
 s    1 1.00
        0.071483705972                   1
 s    1 1.00
        0.028250687604                   1
 p    5 1.00
          640.48536096  0.0093555063746755
          150.69711194   0.068993338492216
          47.503755296     0.2634118959318
          16.934120165    0.51034501651775
           6.240968059    0.33195512953954
 p    3 1.00
          3.0885463206    0.32917682676976
          1.1791047769    0.55491385190365
         0.43369774432    0.23818412855984
 p    1 1.00
              0.120675                   1
 d    4 1.00
          27.559479426   0.036950140313562
          7.4687020327    0.18821519783039
          2.4345903574    0.44641244239929
         0.78244754808     0.5681617303244
 d    1 1.00
         0.21995774311                   1
 f    1 1.00
                 1.147                   1

2 0
 s    6 1.00
          51528.086349  0.0017695545768669
          7737.2103487   0.013556436258096
           1760.374847   0.067162645785071
          496.87706544    0.23295905918518
          161.46520598    0.47040576982722
          55.466352268    0.35733072606876
 s    3 1.00
          107.54732999   -0.10605255446629
          12.408671897    0.62543981484169
          5.0423628826    0.44878820793655
 s    3 1.00
          8.5461640165   -0.21819012081133
          1.3900441221    0.70422525667731
         0.56066602876    0.42488555412558
 s    1 1.00
        0.071483705972                   1
 s    1 1.00
        0.028250687604                   1
 p    5 1.00
          640.48536096  0.0093555063746755
          150.69711194   0.068993338492216
          47.503755296     0.2634118959318
          16.934120165    0.51034501651775
           6.240968059    0.33195512953954
 p    3 1.00
          3.0885463206    0.32917682676976
          1.1791047769    0.55491385190365
         0.43369774432    0.23818412855984
 p    1 1.00
              0.120675                   1
 d    4 1.00
          27.559479426   0.036950140313562
          7.4687020327    0.18821519783039
          2.4345903574    0.44641244239929
         0.78244754808     0.5681617303244
 d    1 1.00
         0.21995774311                   1
 f    1 1.00
                 1.147                   1

[5d]
[7f]
[9g]

[MO]
 Sym= A
 Ene=               0
 Spin= Alpha
 Occup=    1.00000
   1     -0.23423320804846
   2      0.73838011983754
   3     0.010671433842095
   4    0.0068425514814816
   5    -0.0019030265952804
   6    0.0061681318891085
   7    3.3702210920109e-26
   8    1.9223694321607e-18
   9    0.00096695197388848
  10    -9.2774593571492e-26
  11    -1.5482309841198e-18
  12    0.0031667775669553
  13    -4.7514772840034e-27
  14    7.1299485703875e-19
  15    -0.00020502064155318
  16    6.1332297392322e-18
  17    -6.7317806480946e-28
  18    0.00035510616777048
  19    -8.8775090682574e-27
  20    -0.0003570295932206
  21    2.0357882425208e-18
  22    -3.3656354162219e-28
  23    0.00061839339526373
  24    -4.5814442274189e-27
  25    -2.1303913725906e-19
  26    -0.00018705237310207
  27    5.4872405088039e-28
  28    2.7503234356491e-19
  29    7.256943184965e-27
  30    0.00024148357529763
  31    -2.1251991107232e-27
  32      0.23423320804846
  33     -0.73838011983754
  34    -0.010671433842095
  35    -0.0068425514814816
  36    0.0019030265952804
  37    0.0061681318891085
  38    6.5720073693815e-26
  39    1.9223693962235e-18
  40    0.00096695197388848
  41    -1.8225084109198e-25
  42    -1.5482308870359e-18
  43    0.0031667775669553
  44    5.7227792045976e-27
  45    7.129947189534e-19
  46    0.00020502064155318
  47    -6.1332297671486e-18
  48    -6.7317806480946e-28
  49    -0.00035510616777048
  50    9.5590682636229e-27
  51    0.0003570295932206
  52    -2.0357881275386e-18
  53    -3.3656354162219e-28
  54    -0.00061839339526373
  55    -3.5094857047468e-27
  56    -2.1303913675904e-19
  57    -0.00018705237310207
  58    5.3130831690537e-28
  59    2.7503234291938e-19
  60    -7.256943184965e-27
  61    0.00024148357529763
  62    -2.057748263076e-27
 Sym= A
 Ene=               1
 Spin= Alpha
 Occup=    1.00000
   1    -1.0613523562727e-16
   2    3.4949137019028e-16
   3    -1.2513407996905e-15
   4    1.5398202269909e-16
   5    2.474611175634e-17
   6    2.0656580378501e-15
   7      0.26201831004358
   8    4.3635373952661e-16
   9    -5.9307418195184e-15
  10     -0.72480430199173
  11    -1.2415452600783e-15
  12    3.6356837218164e-16
  13    0.0025597771025115
  14    -6.0191795209924e-17
  15    -2.065818344669e-16
  16    4.8812083698517e-16
  17    -1.0342173538634e-17
  18    3.662222572772e-16
  19    -0.048587910137825
  20    -1.2204417824508e-16
  21    7.3584048818724e-17
  22    -1.6979388566248e-18
  23    2.1559241098587e-16
  24    -0.0028250489147533
  25    -1.6388739962739e-17
  26    -5.3607768042581e-17
  27    0.0028463262525292
  28    2.1157772313671e-17
  29    2.3389091661421e-17
  30    -4.8347546492483e-18
  31    -0.011023774173918
  32    8.5942547658231e-17
  33    -3.1348372489777e-16
  34    8.7668942299724e-16
  35    -2.8749545547147e-16
  36    9.9138673303292e-17
  37    2.0244403127535e-15
  38      0.26201831004355
  39    -3.8482529513791e-16
  40    -5.7679218476923e-15
  41     -0.72480430199167
  42    1.0636316265601e-15
  43    -2.2408777134475e-16
  44    0.0025597771025106
  45    6.1365116166875e-17
  46    2.014380700274e-16
  47    -4.2173792690454e-16
  48    5.3780900734414e-18
  49    -3.4048894780633e-16
  50     0.048587910137826
  51    -8.5828532854437e-17
  52    -1.9317057593329e-16
  53    -7.8391490435039e-19
  54    1.5286507314038e-16
  55    0.0028250489147535
  56    -1.6691159578475e-17
  57    2.4435493170288e-18
  58    0.0028463262525292
  59    2.1548194358775e-17
  60    -3.0124344909814e-17
  61    7.088747699784e-17
  62    -0.011023774173918
 Sym= A
 Ene=               2
 Spin= Alpha
 Occup=    1.00000
   1    -5.6577170807373e-17
   2    1.9790679809102e-16
   3    -6.1694183303473e-16
   4    1.0095217015431e-16
   5    -8.9901748889343e-18
   6    1.1763077990259e-15
   7     -0.17524245248347
   8        0.214835194949
   9    -3.3745864310046e-15
  10      0.49136285505375
  11     -0.60237706822853
  12    1.5960842808708e-16
  13    0.0044192631553421
  14    -0.005417712706335
  15    -1.5939898936687e-16
  16     0.011696405173595
  17    -6.6158159626589e-18
  18    2.8328757312273e-16
  19    -0.0095408330480858
  20    4.0774484169979e-17
  21    -0.0091686258153695
  22    -1.3261262855109e-18
  23    -7.4180451240313e-17
  24    0.0074789071416822
  25    -1.5310698780088e-05
  26    -2.4131696606163e-17
  27    5.098627444084e-06
  28    1.976602713136e-05
  29    5.4674881431699e-17
  30    1.6843370334942e-17
  31    -1.9746899179453e-05
  32    5.6189273491488e-17
  33    -1.9131751954593e-16
  34    6.3239787453441e-16
  35    -1.5823368989343e-16
  36    3.4684759845185e-17
  37    1.2249373631857e-15
  38      0.17524245248348
  39       -0.214835194949
  40    -3.4935514784637e-15
  41     -0.49136285505379
  42      0.60237706822853
  43    -7.7721126298396e-17
  44    -0.0044192631553419
  45     0.005417712706335
  46    8.0144351102796e-17
  47     0.011696405173594
  48    -6.6158159626585e-18
  49    -1.316136631855e-16
  50    -0.0095408330480833
  51    6.2036232870411e-17
  52    -0.0091686258153697
  53    -1.3261262855109e-18
  54    -1.1100688024722e-16
  55    0.0074789071416824
  56    1.531069878006e-05
  57    -5.9061709856784e-18
  58    -5.0986274439341e-06
  59    -1.9766027131324e-05
  60    -5.4674881431699e-17
  61    2.1935349977987e-17
  62    1.9746899178873e-05
 Sym= A
 Ene=               3
 Spin= Alpha
 Occup=    1.00000
   1    2.2678848309463e-18
   2    -2.7035630776489e-18
   3    4.7226999575983e-17
   4    2.5579459706762e-18
   5    -8.6142700347942e-18
   6    3.5860494108777e-17
   7     -0.21483519494899
   8     -0.17524245248347
   9    -9.898857512579e-17
  10       0.6023770682285
  11      0.49136285505377
  12    -1.5925724852014e-17
  13     0.005417712706334
  14    0.0044192631553436
  15    -2.7659167690445e-17
  16    -0.0095408330480854
  17    3.1237088068614e-18
  18    3.1673753498149e-17
  19    -0.011696405173596
  20    4.9837803968895e-17
  21    0.0074789071416821
  22    3.9909570715725e-18
  23    -8.8599719171012e-17
  24    0.0091686258153701
  25    1.2489035626113e-05
  26    4.6979046456428e-17
  27    6.2505666030114e-06
  28    -1.6123275663376e-05
  29    -5.4078903797603e-17
  30    4.2210630302896e-17
  31    -2.4208340357823e-05
  32    2.2678858641718e-18
  33    -2.7035666439269e-18
  34    4.7227011023091e-17
  35    2.557943595879e-18
  36    -8.6142696346214e-18
  37    -3.5860472107305e-17
  38      0.21483519494901
  39      0.17524245248347
  40    9.8988512196295e-17
  41     -0.60237706822855
  42     -0.49136285505377
  43    1.5925725602308e-17
  44    -0.0054177127063338
  45    -0.0044192631553436
  46    -2.7659165495623e-17
  47    -0.009540833048084
  48    3.1237088068619e-18
  49    3.1673749696605e-17
  50    -0.011696405173593
  51    4.9837804163707e-17
  52    0.0074789071416825
  53    3.9909570715725e-18
  54    -8.8599719508435e-17
  55    0.0091686258153703
  56    -1.2489035626062e-05
  57    -4.6979046731651e-17
  58    -6.2505666028168e-06
  59    1.612327566331e-05
  60    5.4078903797602e-17
  61    -4.2210629947585e-17
  62    2.420834035707e-05
 Sym= A
 Ene=               4
 Spin= Alpha
 Occup=    1.00000
   1    -0.013647551768348
   2     0.047105848352882
   3     -0.15120125885653
   4     0.031367952270805
   5    -0.0052857562056759
   6      0.29061054343341
   7    -8.9347572617453e-16
   8    -7.4445887961491e-16
   9     -0.83121595481228
  10    2.4463580625156e-15
  11    2.0951148845751e-15
  12    0.0099104055044507
  13    -6.0304106434221e-17
  14    3.7810409558823e-16
  15    -0.028990717584882
  16    -1.5235067943795e-16
  17    -3.4457073916834e-18
  18     0.050213395804897
  19    3.2754045671735e-16
  20    -0.002573201787729
  21    3.1844607869755e-16
  22    -1.7227232195496e-18
  23    0.0044569162344737
  24    -3.526685374432e-17
  25     7.24565728837e-19
  26    -0.0036353310198473
  27    -1.6731317115056e-17
  28    -9.3541033367277e-19
  29    3.714515383168e-17
  30    0.0046931921659401
  31    6.4800112546726e-17
  32     0.013647551768348
  33    -0.047105848352882
  34      0.15120125885653
  35    -0.031367952270805
  36    0.0052857562056758
  37      0.29061054343341
  38    -2.1912155123945e-15
  39    8.634463861964e-16
  40     -0.83121595481228
  41    6.0866237724531e-15
  42    -2.4321344247693e-15
  43    0.0099104055044508
  44    3.0168342259982e-17
  45    -3.7388203956042e-16
  46     0.028990717584882
  47    -8.8096053776272e-17
  48    -3.4457073916835e-18
  49    -0.050213395804897
  50    -2.4447567710785e-16
  51     0.002573201787729
  52    3.4656977592342e-16
  53    -1.7227232195496e-18
  54    -0.0044569162344737
  55    -6.8525612013618e-17
  56    3.1562553253969e-18
  57    -0.0036353310198475
  58    -1.6777935165161e-17
  59    -4.0747081038802e-18
  60    -3.714515383168e-17
  61      0.00469319216594
  62    6.4980663478415e-17
 Sym= A
 Ene=               5
 Spin= Alpha
 Occup=    1.00000
   1    4.8015520383796e-18
   2    -7.8067289685674e-18
   3    2.8974953075433e-17
   4    -1.7457398052887e-17
   5    1.8618619176185e-18
   6    5.2541102234315e-17
   7    5.4242990704959e-18
   8     0.052524471028728
   9    -1.5243544767425e-16
  10    -1.9894824610904e-17
  11     -0.16751546065412
  12    8.8260644180398e-17
  13    -6.5093668318913e-17
  14    0.00093394983567305
  15    1.6042632245997e-16
  16      0.56779884228417
  17    -6.5065320074902e-18
  18    1.9484120042571e-18
  19    5.977167878758e-17
  20    1.6174850583492e-16
  21      0.16734717396345
  22    -3.253019625259e-18
  23    -1.9579910574291e-16
  24    -4.4536384032133e-17
  25    -0.020243117583347
  26    -4.4420791587562e-17
  27    -9.2401365434528e-19
  28     0.026133752425207
  29    7.014122351547e-17
  30    -2.3614196884745e-17
  31    3.5786894949476e-18
  32    -6.8429986914753e-19
  33    8.1980394251556e-18
  34    7.711955598291e-17
  35    -2.7066827356487e-17
  36    3.4497785423984e-18
  37    1.8968574518382e-17
  38    -9.2752587545508e-17
  39     0.052524471028729
  40    -4.6326154883331e-17
  41    2.5874420414885e-16
  42     -0.16751546065412
  43    -8.5620661223783e-17
  44    6.4292053070103e-17
  45    0.00093394983567248
  46    -2.6717911979842e-16
  47     -0.56779884228417
  48    -6.5065320074902e-18
  49    2.0134908356134e-16
  50    -2.715033152795e-17
  51    3.3824385267748e-17
  52     -0.16734717396345
  53    -3.253019625259e-18
  54    -1.3374566146498e-16
  55    -6.6041418157537e-17
  56    -0.020243117583347
  57    4.3281795122267e-17
  58    -1.1065910936378e-18
  59     0.026133752425207
  60    -7.014122351547e-17
  61    2.5084634998571e-17
  62    4.2858088767206e-18
 Sym= A
 Ene=               6
 Spin= Alpha
 Occup=    1.00000
   1    -0.014544250078109
   2     0.036751076160623
   3     -0.22830730233488
   4     -0.19651274194139
   5      0.13198852229774
   6     0.088397126537742
   7    -2.6282302555485e-17
   8    9.7834424969174e-17
   9     -0.31211242499929
  10    6.4817700838268e-17
  11    -2.8662961188452e-16
  12      0.83404938601406
  13    -3.8234559871122e-16
  14    4.7068196522195e-16
  15     -0.17294309790735
  16    2.3301602481848e-16
  17    7.0354074795195e-19
  18       0.2995462323939
  19    7.2876859717106e-17
  20     0.055293037938713
  21    2.4182257491717e-16
  22    3.5174373347001e-19
  23    -0.095770351014684
  24    -3.1986367514557e-16
  25    -6.6704064080592e-18
  26    0.0027006081592858
  27    9.3766926009555e-19
  28    8.6114576436163e-18
  29    -7.5842566819821e-18
  30    -0.0034864701418481
  31    -3.6315774286007e-18
  32    -0.014544250078109
  33     0.036751076160623
  34     -0.22830730233488
  35     -0.19651274194139
  36      0.13198852229774
  37    -0.088397126537742
  38    9.5232902437159e-17
  39    -6.8570047054177e-17
  40      0.31211242499929
  41    -2.5555128510891e-16
  42    1.9329719651368e-16
  43     -0.83404938601406
  44    3.8301920876065e-16
  45    -4.7016160851184e-16
  46     -0.17294309790735
  47    -8.3337087832829e-17
  48    7.0354074795195e-19
  49       0.2995462323939
  50    8.5662857575206e-17
  51     0.055293037938713
  52    1.4858392165792e-16
  53    3.5174373347001e-19
  54    -0.095770351014684
  55    -3.1912025833117e-16
  56    -4.6081887216805e-18
  57    -0.0027006081592858
  58    -1.8865327515079e-19
  59    5.9491460584165e-18
  60    7.5842566819821e-18
  61    0.0034864701418481
  62    7.3065099286651e-19
 Sym= A
 Ene=               7
 Spin= Alpha
 Occup=    1.00000
   1    -2.3709163171134e-16
   2    3.8357545068649e-16
   3    -4.5474198035478e-15
   4    -1.155159767052e-15
   5    1.2733837200106e-15
   6    3.0261022170711e-16
   7    0.00037791011099946
   8    -0.058576116516679
   9    -1.2932180472681e-15
  10    -0.0014375026762189
  11      0.22281310238707
  12    4.8080935356005e-15
  13    -0.014279990116012
  14       2.2134003313122
  15    3.1496761495008e-16
  16     -0.47858899416243
  17    1.2038124672604e-17
  18    -7.6677776140194e-16
  19    0.0030876683307533
  20    -2.5640587206936e-15
  21       1.8567427386522
  22      3.8310222665e-18
  23    5.3294465801913e-15
  24    -0.011978975326262
  25    -0.0079124349469432
  26    1.8600079718897e-16
  27    2.0840227878394e-05
  28     0.010214909592487
  29    -1.2441250496834e-16
  30    -3.0051573744159e-16
  31    -8.0713855504188e-05
  32    -2.3309580540818e-16
  33    3.6978346872364e-16
  34    -4.5031500344764e-15
  35    -1.1643438969584e-15
  36    1.274931320926e-15
  37    -2.1752322081149e-16
  38    -0.00037791011099946
  39     0.058576116516679
  40    1.0498487879988e-15
  41    0.0014375026762189
  42     -0.22281310238707
  43    -4.8051918973044e-15
  44     0.014279990116012
  45      -2.2134003313122
  46    3.2345572134828e-16
  47     -0.47858899416243
  48    1.2038124672604e-17
  49    -7.8147959294368e-16
  50    0.0030876683307533
  51    -2.5633053205581e-15
  52       1.8567427386522
  53      3.8310222665e-18
  54    5.3281416528781e-15
  55    -0.011978975326262
  56    0.0079124349469432
  57    -1.8706517499884e-16
  58    -2.0840227878394e-05
  59    -0.010214909592487
  60    1.2441250496834e-16
  61    3.0188984328549e-16
  62    8.0713855504188e-05
 Sym= A
 Ene=               8
 Spin= Alpha
 Occup=    1.00000
   1    -6.8600254357756e-16
   2    1.1151281563323e-15
   3    -1.3143097182687e-14
   4    -3.5257693044233e-15
   5    3.7775887910657e-15
   6    8.160589629117e-16
   7    -0.058576116516679
   8    -0.00037791011099946
   9    -3.5896242850661e-15
  10      0.22281310238707
  11    0.0014375026762188
  12    1.5829080956415e-14
  13       2.2134003313122
  14     0.014279990116011
  15    1.2419128128835e-15
  16    -0.0030876683307532
  17    -8.1426371511261e-17
  18    -2.1085840655248e-15
  19     -0.47858899416244
  20    -9.2538847228968e-15
  21     0.011978975326261
  22    2.9836573869168e-16
  23    1.6055877920106e-14
  24       1.8567427386522
  25    -5.1047924425372e-05
  26    4.2978343074905e-16
  27    -0.0032302380404968
  28    6.590258705264e-05
  29    4.6989607668656e-17
  30    -9.4163697129999e-16
  31      0.01251065813513
  32    -6.8545868137155e-16
  33    1.1132509631896e-15
  34    -1.3137071732019e-14
  35    -3.5270193340223e-15
  36    3.7777994312648e-15
  37    -8.0447797802922e-16
  38     0.058576116516679
  39    0.00037791011099944
  40    3.5564998867116e-15
  41     -0.22281310238707
  42    -0.0014375026762188
  43    -1.5828686021479e-14
  44      -2.2134003313122
  45    -0.014279990116011
  46    1.2430681084144e-15
  47    -0.003087668330753
  48    -8.1426371511261e-17
  49    -2.1105850960822e-15
  50     -0.47858899416244
  51    -9.2537821794356e-15
  52     0.011978975326262
  53    2.9836573869168e-16
  54    1.6055700309621e-14
  55       1.8567427386522
  56    5.104792442538e-05
  57    -4.2992830062571e-16
  58    0.0032302380404968
  59    -6.590258705265e-05
  60    -4.6989607668656e-17
  61    9.4182399750655e-16
  62     -0.01251065813513
 Sym= A
 Ene=               9
 Spin= Alpha
 Occup=    1.00000
   1    -0.045815100188657
   2     0.074032741698691
   3     -0.87948605556353
   4     -0.23181488386546
   5      0.25078035802454
   6     0.051913025151793
   7    9.6642038820026e-16
   8    3.0248711019176e-16
   9     -0.23134495261051
  10    -3.5998629329351e-15
  11    -1.1717633082064e-15
  12       1.0422233213446
  13    -3.3716672531577e-14
  14    -1.1404313982285e-14
  15     0.088016707379971
  16    2.354154192089e-15
  17    4.6364627150659e-18
  18     -0.15244940909703
  19    7.2809875307057e-15
  20     -0.62705575733296
  21    -9.3057663202644e-15
  22    2.318055791702e-18
  23       1.0860924308793
  24    -2.828516950381e-14
  25    4.4933880294794e-17
  26      0.04155390360019
  27    4.9812602312624e-17
  28    -5.8009390020738e-17
  29    -4.9981644176056e-17
  30    -0.053645858871149
  31    -1.9292337918804e-16
  32    -0.045815100188657
  33     0.074032741698691
  34     -0.87948605556353
  35     -0.23181488386546
  36      0.25078035802454
  37    -0.051913025151793
  38    -8.5468908221729e-16
  39    -3.1980826397946e-16
  40      0.23134495261051
  41    3.2907878487162e-15
  42    1.2270053886877e-15
  43      -1.0422233213446
  44    3.3717764085975e-14
  45    1.1404005990821e-14
  46     0.088016707379971
  47    2.5413989348737e-15
  48    4.6364627150659e-18
  49     -0.15244940909703
  50    7.3017066577537e-15
  51     -0.62705575733296
  52    -9.2505797361944e-15
  53    2.318055791702e-18
  54       1.0860924308793
  55    -2.828396483073e-14
  56    -3.8258246139205e-17
  57     -0.04155390360019
  58    -4.8598856031321e-17
  59    4.9391183384082e-17
  60    4.9981644176056e-17
  61     0.053645858871149
  62    1.8822256005404e-16
 Sym= A
 Ene=              10
 Spin= Alpha
 Occup=    1.00000
   1    7.4928179815199e-18
   2    -1.3182704967484e-17
   3    1.4043428370455e-16
   4    6.2078683121686e-17
   5    -5.2907232414471e-17
   6    -8.5432714705703e-18
   7    1.0279044912166e-17
   8    -3.7657192832497e-17
   9    4.4378988832607e-17
  10    -3.8792463690608e-17
  11    1.0405737366044e-16
  12    -2.6473667406802e-16
  13    -3.7507948164232e-16
  14    -1.3331970456461e-16
  15    -0.0072431502343342
  16    -2.8024473230841e-17
  17     0.060512601289315
  18    -0.0041818347375738
  19    7.3646382007984e-17
  20    -0.0036213008456523
  21    -1.2689007467694e-16
  22     0.030254009254547
  23    -0.0020907590180541
  24    -3.1853222746184e-16
  25    2.5018961984171e-18
  26     0.071278842235052
  27    -1.9241809434866e-16
  28    1.3858078103437e-17
  29     -0.65233336094409
  30      0.05521235378266
  31    1.0346178155919e-16
  32    8.6602097432835e-18
  33    -1.7206909769175e-17
  34    1.5317596969364e-16
  35    5.9434648143694e-17
  36    -5.2461635701782e-17
  37    3.3034901462725e-17
  38    -1.2774391545525e-17
  39    2.7175534024608e-17
  40    -1.1442956303129e-16
  41    4.5695179666902e-17
  42    -7.062838581471e-17
  43    2.6557210570455e-16
  44    3.7505510345603e-16
  45    1.3313332775149e-16
  46    -0.0072431502343342
  47    8.5284116456465e-17
  48     0.060512601289315
  49    -0.0041818347375738
  50    7.3183652216451e-17
  51    -0.0036213008456523
  52    -9.3494669723884e-17
  53     0.030254009254547
  54    -0.0020907590180541
  55    -3.1855913197968e-16
  56    1.5377723134384e-18
  57    -0.071278842235052
  58    1.9239098719485e-16
  59    -1.9073267726975e-17
  60      0.65233336094409
  61     -0.05521235378266
  62    -1.0335679600392e-16
 Sym= A
 Ene=              11
 Spin= Alpha
 Occup=    1.00000
   1    -2.2371592584949e-17
   2    3.227277114668e-17
   3    -4.4173556642065e-16
   4    -3.5288522735963e-17
   5    8.4502242401861e-17
   6    2.0738006058476e-17
   7    -6.6345924825476e-17
   8    -3.7582524371085e-17
   9    -7.9123338010668e-17
  10    2.1041168362274e-16
  11    1.1418774225985e-16
  12    2.0340594656057e-16
  13    9.4617944265617e-16
  14    2.5441491970707e-16
  15    -0.052405449965626
  16    -1.0349163560066e-16
  17    -0.0083636694751475
  18    -0.030256300644658
  19    -2.0157792680915e-16
  20    -0.026200740580767
  21    2.0248637937137e-16
  22    -0.004181518036108
  23    -0.015127004627273
  24    7.9509849125547e-16
  25    1.1864414458597e-18
  26      0.51571480357401
  27    2.5103928981824e-17
  28    1.2210304691308e-16
  29     0.090161396177028
  30      0.39947096912696
  31    -8.5256631652668e-18
  32    -1.8907258384142e-17
  33    2.0352626927914e-17
  34    -4.04742268425e-16
  35    -4.2967912833721e-17
  36    8.5796681889695e-17
  37    5.0377746136662e-17
  38    3.2257496533716e-17
  39    2.6725540979688e-17
  40    -1.2427488117749e-16
  41    -1.1611506950484e-16
  42    -7.9561737685158e-17
  43    -2.00979181136e-16
  44    -9.4651246815422e-16
  45    -2.546079702539e-16
  46    -0.052405449965626
  47    1.3874279364221e-17
  48    -0.0083636694751475
  49    -0.030256300644658
  50    -2.0789918538953e-16
  51    -0.026200740580767
  52    2.3707759852567e-16
  53    -0.004181518036108
  54    -0.015127004627273
  55    7.947309540504e-16
  56    2.9978784927889e-18
  57     -0.51571480357401
  58    -2.5474234356048e-17
  59    -1.2750498072561e-16
  60    -0.090161396177028
  61     -0.39947096912696
  62    9.9598497126486e-18
