[Molden Format]
made by pyscf v[2.1.1]
[Atoms] (AU)
N   1   7     0.00000000000000     0.00000000000000     0.00000000000000
N   2   7     7.21875379583854     0.00000000000000     0.00000000000000
[GTO]
1 0
 s    3 1.00
             99.106169    0.15432897032795
             18.052312    0.53532814113758
             4.8856602    0.44463454094486
 s    3 1.00
             3.7804559  -0.099967228443697
             0.8784966    0.39951282378033
             0.2857144    0.70011545910051
 p    3 1.00
             3.7804559    0.15591626853622
             0.8784966    0.60768371429493
             0.2857144    0.39195738632021

2 0
 s    3 1.00
             99.106169    0.15432897032795
             18.052312    0.53532814113758
             4.8856602    0.44463454094486
 s    3 1.00
             3.7804559  -0.099967228443697
             0.8784966    0.39951282378033
             0.2857144    0.70011545910051
 p    3 1.00
             3.7804559    0.15591626853622
             0.8784966    0.60768371429493
             0.2857144    0.39195738632021

[5d]
[7f]
[9g]

[MO]
 Sym= A1g
 Ene=               0
 Spin= Alpha
 Occup=    1.00000
   1      0.70350065871319
   2     0.014726090805084
   3    5.9375424740388e-05
   4                     0
   5    1.3183992728735e-20
   6      0.70350065871319
   7     0.014726090805084
   8    -5.9375424740388e-05
   9                     0
  10    -1.3183992728735e-20
 Sym= A1u
 Ene=               1
 Spin= Alpha
 Occup=    1.00000
   1       0.7035063419648
   2     0.014704153466016
   3    4.3741954984966e-06
   4                     0
   5    9.7126651132853e-22
   6      -0.7035063419648
   7    -0.014704153466016
   8    4.3741954984966e-06
   9                     0
  10    9.7126651132853e-22
 Sym= A1g
 Ene=               2
 Spin= Alpha
 Occup=    1.00000
   1     -0.18523009339503
   2      0.72717840632287
   3    0.0075239332229197
   4                     0
   5    1.6706487799655e-18
   6     -0.18523009339503
   7      0.72717840632287
   8    -0.0075239332229197
   9                     0
  10    -1.6706487799655e-18
 Sym= A1u
 Ene=               3
 Spin= Alpha
 Occup=    1.00000
   1     -0.18525231692425
   2      0.72738751309094
   3    -0.0088488937698635
   4                     0
   5    -1.9648491211529e-18
   6      0.18525231692425
   7     -0.72738751309094
   8    -0.0088488937698635
   9                     0
  10    -1.9648491211529e-18
 Sym= A1g
 Ene=               4
 Spin= Alpha
 Occup=    1.00000
   1    0.0020260742546468
   2    -0.0082255896917431
   3      0.70659320637227
   4                     0
   5    1.5689520935164e-16
   6    0.0020260742546468
   7    -0.0082255896917431
   8     -0.70659320637227
   9                     0
  10    -1.5689520935164e-16
 Sym= A1u
 Ene=               5
 Spin= Alpha
 Occup=    1.00000
   1    -0.0024343141710438
   2    0.0095793827573733
   3      0.70752622677317
   4                     0
   5    1.5710238149795e-16
   6    0.0024343141710438
   7    -0.0095793827573733
   8      0.70752622677317
   9                     0
  10    1.5710238149795e-16
 Sym= E1ux
 Ene=               6
 Spin= Alpha
 Occup=    1.00000
   1                     0
   2                     0
   3    8.9796910220107e-33
   4      0.70707348612594
   5    -4.3295764077305e-17
   6                     0
   7                     0
   8    8.9796910220107e-33
   9      0.70707348612594
  10    -4.3295764077305e-17
 Sym= E1gx
 Ene=               7
 Spin= Alpha
 Occup=    0.00000
   1                     0
   2                     0
   3    8.9805367628917e-33
   4      0.70714008095105
   5    -4.3299841834275e-17
   6                     0
   7                     0
   8    -8.9805367628917e-33
   9     -0.70714008095105
  10    4.3299841834275e-17
 Sym= E1uy
 Ene=               8
 Spin= Alpha
 Occup=    0.00000
   1                     0
   2                     0
   3    -1.3400946385498e-16
   4    4.3295764077305e-17
   5      0.70707348612594
   6                     0
   7                     0
   8    -1.3400946385498e-16
   9    4.3295764077305e-17
  10      0.70707348612594
 Sym= E1gy
 Ene=               9
 Spin= Alpha
 Occup=    0.00000
   1                     0
   2                     0
   3    -1.3402208536743e-16
   4    4.3299841834275e-17
   5      0.70714008095105
   6                     0
   7                     0
   8    1.3402208536743e-16
   9    -4.3299841834275e-17
  10     -0.70714008095105
