[Molden Format]
made by pyscf v[2.1.1]
[Atoms] (AU)
C   1   6     1.19052745847599     1.19052745847599     1.19052745847599
H   2   1     2.38105491695198     2.38105491695198     0.00000000000000
H   3   1     0.00000000000000     2.38105491695198     2.38105491695198
H   4   1     2.38105491695198     0.00000000000000     2.38105491695198
H   5   1    -0.75589044982602    -0.75589044982602    -0.75589044982602
[GTO]
1 0
 s    3 1.00
             71.616837    0.15432897000916
             13.045096    0.53532814003178
             3.5305122     0.4446345400264
 s    3 1.00
             2.9412494  -0.099967230075964
             0.6834831    0.39951283030359
             0.2222899    0.70011547053201
 p    3 1.00
             2.9412494    0.15591627210511
             0.6834831    0.60768372820466
             0.2222899    0.39195739529202

2 0
 s    3 1.00
            3.42525091    0.15432897070298
            0.62391373    0.53532814243847
             0.1688554    0.44463454202535

3 0
 s    3 1.00
            3.42525091    0.15432897070298
            0.62391373    0.53532814243847
             0.1688554    0.44463454202535

4 0
 s    3 1.00
            3.42525091    0.15432897070298
            0.62391373    0.53532814243847
             0.1688554    0.44463454202535

5 0
 s    3 1.00
            3.42525091    0.15432897070298
            0.62391373    0.53532814243847
             0.1688554    0.44463454202535

[5d]
[7f]
[9g]

[MO]
 Sym= A'
 Ene=               0
 Spin= Alpha
 Occup=    1.00000
   1      0.99245281990913
   2     0.034432254144934
   3    0.0018180203550024
   4    0.0018180203550024
   5    0.0018180203550024
   6    -0.0068477308185051
   7    -0.0068477308185051
   8    -0.0068477308185051
   9    -0.0023004823374196
 Sym= A'
 Ene=               1
 Spin= Alpha
 Occup=    1.00000
   1     -0.21919250461914
   2      0.64378318625882
   3     0.053578808776646
   4     0.053578808776647
   5     0.053578808776646
   6      0.21043210645478
   7      0.21043210645478
   8      0.21043210645478
   9     0.065414248256236
 Sym= A'
 Ene=               2
 Spin= Alpha
 Occup=    1.00000
   1    3.2883927177006e-16
   2    -1.1523616039223e-15
   3     -0.23026571270769
   4      0.46053142541537
   5     -0.23026571270769
   6      0.24943466999414
   7      0.24943466999414
   8     -0.49886933998828
   9    -3.2021729896418e-16
 Sym= A"
 Ene=               3
 Spin= Alpha
 Occup=    1.00000
   1                     0
   2                     0
   3      0.39883191365077
   4                     0
   5     -0.39883191365077
   6      0.43203352159903
   7     -0.43203352159903
   8                     0
   9                     0
 Sym= A'
 Ene=               4
 Spin= Alpha
 Occup=    1.00000
   1    -0.037864896245708
   2      0.19136625496368
   3     -0.33234915552329
   4     -0.33234915552329
   5     -0.33234915552329
   6     -0.11133637983827
   7     -0.11133637983827
   8     -0.11133637983827
   9      0.63842003769906
 Sym= A'
 Ene=               5
 Spin= Alpha
 Occup=    0.00000
   1     0.098497298587117
   2     -0.47067236078086
   3      0.41527563503381
   4       0.4152756350338
   5      0.41527563503381
   6     0.076779467407956
   7     0.076779467407956
   8     0.076779467407954
   9      0.82336602502578
 Sym= A'
 Ene=               6
 Spin= Alpha
 Occup=    0.00000
   1    -7.3640201592137e-15
   2    4.7593253770753e-14
   3     -0.45081916891815
   4      0.90163833783633
   5     -0.45081916891815
   6     -0.49605350574221
   7     -0.49605350574221
   8      0.99210701148434
   9    1.718853641938e-15
 Sym= A"
 Ene=               7
 Spin= Alpha
 Occup=    0.00000
   1                     0
   2                     0
   3     -0.78084170559223
   4                     0
   5      0.78084170559223
   6      0.85918987521812
   7     -0.85918987521812
   8                     0
   9                     0
 Sym= A'
 Ene=               8
 Spin= Alpha
 Occup=    0.00000
   1     -0.21345487453001
   2       1.3672785541475
   3       0.3325554792776
   4      0.33255547927755
   5       0.3325554792776
   6     -0.75020116496362
   7     -0.75020116496362
   8     -0.75020116496367
   9     0.015902854637835
